   6   6   0   0
  0.5861956E+02  0.3452000E-09  0.6368000E-09  0.1600000E-08  0.5000000E-15
  1.000000000000000E-004
  CAR 
 2D MoTe2 in a box                       
      4.32558837    -13.26193763  301      0.37263573      1.00000000
    -13.262  0.0000E+00  0.0000E+00
    -13.203  0.0000E+00  0.0000E+00
    -13.145  0.0000E+00  0.0000E+00
    -13.086  0.3111E-06  0.1824E-07
    -13.027  0.6354E-06  0.5549E-07
    -12.969  0.1193E-05  0.1254E-06
    -12.910  0.2841E-05  0.2920E-06
    -12.852  0.5907E-05  0.6383E-06
    -12.793  0.1238E-04  0.1364E-05
    -12.734  0.2609E-04  0.2894E-05
    -12.676  0.5413E-04  0.6067E-05
    -12.617  0.1088E-03  0.1245E-04
    -12.558  0.2080E-03  0.2464E-04
    -12.500  0.3637E-03  0.4596E-04
    -12.441  0.5639E-03  0.7902E-04
    -12.383  0.7633E-03  0.1238E-03
    -12.324  0.9202E-03  0.1777E-03
    -12.265  0.1026E-02  0.2379E-03
    -12.207  0.1090E-02  0.3018E-03
    -12.148  0.1129E-02  0.3679E-03
    -12.089  0.1162E-02  0.4360E-03
    -12.031  0.1196E-02  0.5061E-03
    -11.972  0.1219E-02  0.5776E-03
    -11.914  0.1230E-02  0.6497E-03
    -11.855  0.1254E-02  0.7232E-03
    -11.796  0.1309E-02  0.8000E-03
    -11.738  0.1404E-02  0.8823E-03
    -11.679  0.1561E-02  0.9739E-03
    -11.620  0.1823E-02  0.1081E-02
    -11.562  0.2203E-02  0.1210E-02
    -11.503  0.2621E-02  0.1364E-02
    -11.445  0.2936E-02  0.1536E-02
    -11.386  0.3090E-02  0.1717E-02
    -11.327  0.3153E-02  0.1902E-02
    -11.269  0.3207E-02  0.2090E-02
    -11.210  0.3264E-02  0.2281E-02
    -11.151  0.3309E-02  0.2475E-02
    -11.093  0.3332E-02  0.2671E-02
    -11.034  0.3338E-02  0.2866E-02
    -10.976  0.3377E-02  0.3065E-02
    -10.917  0.3529E-02  0.3271E-02
    -10.858  0.3826E-02  0.3496E-02
    -10.800  0.4246E-02  0.3745E-02
    -10.741  0.4726E-02  0.4022E-02
    -10.682  0.5198E-02  0.4327E-02
    -10.624  0.5640E-02  0.4658E-02
    -10.565  0.6024E-02  0.5011E-02
    -10.507  0.6198E-02  0.5374E-02
    -10.448  0.5983E-02  0.5725E-02
    -10.389  0.5443E-02  0.6044E-02
    -10.331  0.4848E-02  0.6329E-02
    -10.272  0.4403E-02  0.6587E-02
    -10.213  0.4137E-02  0.6829E-02
    -10.155  0.3959E-02  0.7062E-02
    -10.096  0.3783E-02  0.7284E-02
    -10.038  0.3522E-02  0.7490E-02
     -9.979  0.3045E-02  0.7669E-02
     -9.920  0.2322E-02  0.7805E-02
     -9.862  0.1527E-02  0.7895E-02
     -9.803  0.8808E-03  0.7947E-02
     -9.744  0.4626E-03  0.7974E-02
     -9.686  0.2294E-03  0.7988E-02
     -9.627  0.1101E-03  0.7994E-02
     -9.569  0.5097E-04  0.7997E-02
     -9.510  0.2342E-04  0.7999E-02
     -9.451  0.9963E-05  0.7999E-02
     -9.393  0.3614E-05  0.8000E-02
     -9.334  0.3576E-06  0.8000E-02
     -9.275  0.0000E+00  0.8000E-02
     -9.217  0.0000E+00  0.8000E-02
     -9.158  0.0000E+00  0.8000E-02
     -9.100  0.0000E+00  0.8000E-02
     -9.041  0.0000E+00  0.8000E-02
     -8.982  0.0000E+00  0.8000E-02
     -8.924  0.0000E+00  0.8000E-02
     -8.865  0.0000E+00  0.8000E-02
     -8.806  0.0000E+00  0.8000E-02
     -8.748  0.0000E+00  0.8000E-02
     -8.689  0.0000E+00  0.8000E-02
     -8.631  0.0000E+00  0.8000E-02
     -8.572  0.0000E+00  0.8000E-02
     -8.513  0.0000E+00  0.8000E-02
     -8.455  0.0000E+00  0.8000E-02
     -8.396  0.0000E+00  0.8000E-02
     -8.337  0.0000E+00  0.8000E-02
     -8.279  0.0000E+00  0.8000E-02
     -8.220  0.0000E+00  0.8000E-02
     -8.162  0.0000E+00  0.8000E-02
     -8.103  0.0000E+00  0.8000E-02
     -8.044  0.0000E+00  0.8000E-02
     -7.986  0.0000E+00  0.8000E-02
     -7.927  0.0000E+00  0.8000E-02
     -7.868  0.0000E+00  0.8000E-02
     -7.810  0.0000E+00  0.8000E-02
     -7.751  0.0000E+00  0.8000E-02
     -7.693  0.0000E+00  0.8000E-02
     -7.634  0.0000E+00  0.8000E-02
     -7.575  0.0000E+00  0.8000E-02
     -7.517  0.0000E+00  0.8000E-02
     -7.458  0.0000E+00  0.8000E-02
     -7.399  0.0000E+00  0.8000E-02
     -7.341  0.0000E+00  0.8000E-02
     -7.282  0.0000E+00  0.8000E-02
     -7.224  0.0000E+00  0.8000E-02
     -7.165  0.0000E+00  0.8000E-02
     -7.106  0.0000E+00  0.8000E-02
     -7.048  0.0000E+00  0.8000E-02
     -6.989  0.0000E+00  0.8000E-02
     -6.930  0.0000E+00  0.8000E-02
     -6.872  0.0000E+00  0.8000E-02
     -6.813  0.0000E+00  0.8000E-02
     -6.755  0.0000E+00  0.8000E-02
     -6.696  0.0000E+00  0.8000E-02
     -6.637  0.0000E+00  0.8000E-02
     -6.579  0.0000E+00  0.8000E-02
     -6.520  0.0000E+00  0.8000E-02
     -6.461  0.0000E+00  0.8000E-02
     -6.403  0.0000E+00  0.8000E-02
     -6.344  0.0000E+00  0.8000E-02
     -6.286  0.0000E+00  0.8000E-02
     -6.227  0.0000E+00  0.8000E-02
     -6.168  0.0000E+00  0.8000E-02
     -6.110  0.0000E+00  0.8000E-02
     -6.051  0.7490E-07  0.8000E-02
     -5.992  0.2005E-06  0.8000E-02
     -5.934  0.5240E-06  0.8000E-02
     -5.875  0.1652E-05  0.8000E-02
     -5.817  0.3223E-05  0.8000E-02
     -5.758  0.6746E-05  0.8001E-02
     -5.699  0.1410E-04  0.8002E-02
     -5.641  0.3001E-04  0.8003E-02
     -5.582  0.6233E-04  0.8007E-02
     -5.523  0.1256E-03  0.8014E-02
     -5.465  0.2412E-03  0.8028E-02
     -5.406  0.4300E-03  0.8054E-02
     -5.348  0.6971E-03  0.8095E-02
     -5.289  0.1021E-02  0.8154E-02
     -5.230  0.1344E-02  0.8233E-02
     -5.172  0.1595E-02  0.8327E-02
     -5.113  0.1753E-02  0.8429E-02
     -5.054  0.1873E-02  0.8539E-02
     -4.996  0.2018E-02  0.8658E-02
     -4.937  0.2190E-02  0.8786E-02
     -4.879  0.2335E-02  0.8923E-02
     -4.820  0.2411E-02  0.9064E-02
     -4.761  0.2456E-02  0.9208E-02
     -4.703  0.2567E-02  0.9359E-02
     -4.644  0.2837E-02  0.9525E-02
     -4.585  0.3316E-02  0.9720E-02
     -4.527  0.3996E-02  0.9954E-02
     -4.468  0.4812E-02  0.1024E-01
     -4.410  0.5663E-02  0.1057E-01
     -4.351  0.6400E-02  0.1094E-01
     -4.292  0.6868E-02  0.1135E-01
     -4.234  0.6972E-02  0.1175E-01
     -4.175  0.6705E-02  0.1215E-01
     -4.116  0.6195E-02  0.1251E-01
     -4.058  0.5637E-02  0.1284E-01
     -3.999  0.5133E-02  0.1314E-01
     -3.941  0.4688E-02  0.1342E-01
     -3.882  0.4309E-02  0.1367E-01
     -3.823  0.4019E-02  0.1391E-01
     -3.765  0.3819E-02  0.1413E-01
     -3.706  0.3679E-02  0.1435E-01
     -3.647  0.3621E-02  0.1456E-01
     -3.589  0.3755E-02  0.1478E-01
     -3.530  0.4149E-02  0.1502E-01
     -3.472  0.4707E-02  0.1530E-01
     -3.413  0.5197E-02  0.1560E-01
     -3.354  0.5389E-02  0.1592E-01
     -3.296  0.5201E-02  0.1622E-01
     -3.237  0.4780E-02  0.1650E-01
     -3.178  0.4396E-02  0.1676E-01
     -3.120  0.4253E-02  0.1701E-01
     -3.061  0.4411E-02  0.1727E-01
     -3.003  0.4773E-02  0.1755E-01
     -2.944  0.5133E-02  0.1785E-01
     -2.885  0.5392E-02  0.1817E-01
     -2.827  0.5644E-02  0.1850E-01
     -2.768  0.5981E-02  0.1885E-01
     -2.709  0.6354E-02  0.1922E-01
     -2.651  0.6646E-02  0.1961E-01
     -2.592  0.6754E-02  0.2001E-01
     -2.534  0.6690E-02  0.2040E-01
     -2.475  0.6521E-02  0.2078E-01
     -2.416  0.6223E-02  0.2115E-01
     -2.358  0.5793E-02  0.2149E-01
     -2.299  0.5411E-02  0.2181E-01
     -2.240  0.5219E-02  0.2211E-01
     -2.182  0.5180E-02  0.2242E-01
     -2.123  0.5191E-02  0.2272E-01
     -2.065  0.5226E-02  0.2303E-01
     -2.006  0.5297E-02  0.2334E-01
     -1.947  0.5399E-02  0.2365E-01
     -1.889  0.5540E-02  0.2398E-01
     -1.830  0.5752E-02  0.2432E-01
     -1.771  0.6024E-02  0.2467E-01
     -1.713  0.6275E-02  0.2504E-01
     -1.654  0.6430E-02  0.2541E-01
     -1.596  0.6504E-02  0.2580E-01
     -1.537  0.6650E-02  0.2619E-01
     -1.478  0.7049E-02  0.2660E-01
     -1.420  0.7638E-02  0.2705E-01
     -1.361  0.8027E-02  0.2752E-01
     -1.302  0.7865E-02  0.2798E-01
     -1.244  0.7244E-02  0.2840E-01
     -1.185  0.6612E-02  0.2879E-01
     -1.127  0.6368E-02  0.2917E-01
     -1.068  0.6604E-02  0.2955E-01
     -1.009  0.7116E-02  0.2997E-01
     -0.951  0.7595E-02  0.3042E-01
     -0.892  0.7781E-02  0.3087E-01
     -0.833  0.7611E-02  0.3132E-01
     -0.775  0.7243E-02  0.3174E-01
     -0.716  0.6844E-02  0.3214E-01
     -0.658  0.6437E-02  0.3252E-01
     -0.599  0.6038E-02  0.3288E-01
     -0.540  0.5694E-02  0.3321E-01
     -0.482  0.5368E-02  0.3353E-01
     -0.423  0.5049E-02  0.3382E-01
     -0.364  0.4785E-02  0.3410E-01
     -0.306  0.4548E-02  0.3437E-01
     -0.247  0.4305E-02  0.3462E-01
     -0.189  0.4051E-02  0.3486E-01
     -0.130  0.3747E-02  0.3508E-01
     -0.071  0.3368E-02  0.3528E-01
     -0.013  0.2899E-02  0.3545E-01
      0.046  0.2335E-02  0.3558E-01
      0.105  0.1755E-02  0.3569E-01
      0.163  0.1292E-02  0.3576E-01
      0.222  0.1019E-02  0.3582E-01
      0.280  0.9454E-03  0.3588E-01
      0.339  0.1040E-02  0.3594E-01
      0.398  0.1251E-02  0.3601E-01
      0.456  0.1523E-02  0.3610E-01
      0.515  0.1829E-02  0.3621E-01
      0.574  0.2163E-02  0.3634E-01
      0.632  0.2523E-02  0.3648E-01
      0.691  0.2845E-02  0.3665E-01
      0.749  0.3000E-02  0.3683E-01
      0.808  0.2906E-02  0.3700E-01
      0.867  0.2653E-02  0.3715E-01
      0.925  0.2405E-02  0.3729E-01
      0.984  0.2274E-02  0.3743E-01
      1.043  0.2288E-02  0.3756E-01
      1.101  0.2426E-02  0.3770E-01
      1.160  0.2694E-02  0.3786E-01
      1.218  0.3131E-02  0.3805E-01
      1.277  0.3716E-02  0.3826E-01
      1.336  0.4354E-02  0.3852E-01
      1.394  0.4931E-02  0.3881E-01
      1.453  0.5272E-02  0.3912E-01
      1.512  0.5171E-02  0.3942E-01
      1.570  0.4656E-02  0.3969E-01
      1.629  0.4140E-02  0.3994E-01
      1.687  0.4117E-02  0.4018E-01
      1.746  0.4693E-02  0.4045E-01
      1.805  0.5510E-02  0.4078E-01
      1.863  0.6121E-02  0.4114E-01
      1.922  0.6405E-02  0.4151E-01
      1.981  0.6537E-02  0.4189E-01
      2.039  0.6665E-02  0.4229E-01
      2.098  0.6745E-02  0.4268E-01
      2.156  0.6661E-02  0.4307E-01
      2.215  0.6474E-02  0.4345E-01
      2.274  0.6400E-02  0.4383E-01
      2.332  0.6598E-02  0.4421E-01
      2.391  0.6979E-02  0.4462E-01
      2.450  0.7214E-02  0.4505E-01
      2.508  0.6998E-02  0.4546E-01
      2.567  0.6371E-02  0.4583E-01
      2.625  0.5636E-02  0.4616E-01
      2.684  0.4990E-02  0.4645E-01
      2.743  0.4388E-02  0.4671E-01
      2.801  0.3768E-02  0.4693E-01
      2.860  0.3139E-02  0.4712E-01
      2.919  0.2518E-02  0.4726E-01
      2.977  0.1948E-02  0.4738E-01
      3.036  0.1526E-02  0.4747E-01
      3.094  0.1322E-02  0.4755E-01
      3.153  0.1285E-02  0.4762E-01
      3.212  0.1269E-02  0.4770E-01
      3.270  0.1157E-02  0.4776E-01
      3.329  0.9748E-03  0.4782E-01
      3.388  0.8078E-03  0.4787E-01
      3.446  0.6800E-03  0.4791E-01
      3.505  0.5567E-03  0.4794E-01
      3.563  0.4143E-03  0.4797E-01
      3.622  0.2704E-03  0.4798E-01
      3.681  0.1558E-03  0.4799E-01
      3.739  0.8171E-04  0.4800E-01
      3.798  0.4036E-04  0.4800E-01
      3.857  0.1874E-04  0.4800E-01
      3.915  0.8850E-05  0.4800E-01
      3.974  0.4095E-05  0.4800E-01
      4.032  0.1675E-05  0.4800E-01
      4.091  0.5511E-06  0.4800E-01
      4.150  0.0000E+00  0.4800E-01
      4.208  0.0000E+00  0.4800E-01
      4.267  0.0000E+00  0.4800E-01
      4.326  0.0000E+00  0.4800E-01
