    6    6 1000    1
  0.5861956E+02  0.3452000E-09  0.6368000E-09  0.1600000E-08  0.5000000E-15
  1.000000000000000E-004
  CAR 
 2D MoTe2 in a box                       
     36    162     24
 
  0.2777778E-01  0.2777778E-01  0.1262379E-14  0.6172840E-02
    1      -12.462505
    2      -11.561864
    3      -10.754630
    4      -10.494947
    5       -5.240776
    6       -4.567280
    7       -4.308392
    8       -3.553078
    9       -2.429677
   10       -2.015777
   11       -1.958443
   12       -1.650497
   13       -1.318247
   14       -0.954034
   15       -0.675467
   16       -0.216918
   17       -0.000463
   18        0.593948
   19        0.898690
   20        1.517834
   21        2.035772
   22        2.427518
   23        2.621129
   24        3.526155
 
  0.8333333E-01  0.2777778E-01  0.1262379E-14  0.6172840E-02
    1      -12.393368
    2      -11.515038
    3      -10.718829
    4      -10.448953
    5       -5.168554
    6       -4.488647
    7       -4.278975
    8       -3.521496
    9       -2.469022
   10       -2.174350
   11       -2.052132
   12       -1.709011
   13       -1.316842
   14       -0.913222
   15       -0.708576
   16       -0.387570
   17       -0.005782
   18        0.442215
   19        0.584517
   20        1.663340
   21        2.142048
   22        2.364287
   23        2.435195
   24        3.115044
 
  0.1388889E+00  0.2777778E-01  0.1262379E-14  0.6172840E-02
    1      -12.256858
    2      -11.423491
    3      -10.650657
    4      -10.361715
    5       -5.029939
    6       -4.352801
    7       -4.214849
    8       -3.471613
    9       -2.548421
   10       -2.458344
   11       -2.120994
   12       -1.939203
   13       -1.347212
   14       -1.027206
   15       -0.803480
   16       -0.521824
   17       -0.014174
   18        0.087682
   19        0.361653
   20        1.633635
   21        2.199058
   22        2.299312
   23        2.410013
   24        2.568339
 
  0.1944444E+00  0.2777778E-01  0.1262379E-14  0.6172840E-02
    1      -12.056744
    2      -11.291732
    3      -10.557336
    4      -10.243846
    5       -4.838754
    6       -4.264149
    7       -4.045499
    8       -3.429812
    9       -2.848926
   10       -2.622828
   11       -2.306917
   12       -2.206174
   13       -1.393181
   14       -1.227731
   15       -1.079239
   16       -0.705612
   17       -0.330647
   18        0.007312
   19        0.354040
   20        1.459769
   21        2.099447
   22        2.216660
   23        2.391220
   24        2.419051
 
  0.2500000E+00  0.2777778E-01  0.1262379E-14  0.6172840E-02
    1      -11.799427
    2      -11.127166
    3      -10.450372
    4      -10.113858
    5       -4.623179
    6       -4.264348
    7       -3.779184
    8       -3.476075
    9       -3.310909
   10       -2.661307
   11       -2.518010
   12       -2.426362
   13       -1.703863
   14       -1.416741
   15       -1.349504
   16       -0.981796
   17       -0.542170
   18       -0.044257
   19        0.501332
   20        1.349853
   21        1.830190
   22        2.241432
   23        2.360505
   24        2.509274
 
  0.3055556E+00  0.2777778E-01  0.1262379E-14  0.6172840E-02
    1      -11.495076
    2      -10.941025
    3      -10.345816
    4      -10.000578
    5       -4.442984
    6       -4.316598
    7       -3.964868
    8       -3.479948
    9       -3.331242
   10       -2.807753
   11       -2.682860
   12       -2.596895
   13       -2.242133
   14       -1.528881
   15       -1.406434
   16       -1.225078
   17       -0.690671
   18       -0.179314
   19        0.739682
   20        1.322306
   21        1.731291
   22        2.258661
   23        2.346770
   24        2.465827
 
  0.3611111E+00  0.2777778E-01  0.1262379E-14  0.6172840E-02
    1      -11.160030
    2      -10.749710
    3      -10.262951
    4       -9.942626
    5       -4.470493
    6       -4.344055
    7       -4.310942
    8       -3.412491
    9       -3.256638
   10       -3.092169
   11       -2.837823
   12       -2.799872
   13       -2.225840
   14       -1.687916
   15       -1.440780
   16       -1.325515
   17       -0.851033
   18       -0.391675
   19        1.014500
   20        1.370783
   21        1.755991
   22        2.088954
   23        2.279088
   24        2.487201
 
  0.4166667E+00  0.2777778E-01  0.1262379E-14  0.6172840E-02
    1      -10.822089
    2      -10.576945
    3      -10.217976
    4       -9.976485
    5       -4.638898
    6       -4.465365
    7       -4.319131
    8       -3.844652
    9       -3.317376
   10       -3.227088
   11       -2.751143
   12       -2.611248
   13       -2.088392
   14       -1.872091
   15       -1.467386
   16       -1.304120
   17       -1.004312
   18       -0.665328
   19        1.274515
   20        1.460128
   21        1.811550
   22        1.910129
   23        2.164256
   24        2.495076
 
  0.4722222E+00  0.2777778E-01  0.1262379E-14  0.6172840E-02
    1      -10.541587
    2      -10.466276
    3      -10.198682
    4      -10.101239
    5       -4.643557
    6       -4.534869
    7       -4.341507
    8       -4.214600
    9       -3.380512
   10       -3.348034
   11       -2.459818
   12       -2.335219
   13       -2.176564
   14       -2.084448
   15       -1.334969
   16       -1.252481
   17       -1.098469
   18       -0.961852
   19        1.453271
   20        1.506261
   21        1.806233
   22        1.810327
   23        2.222097
   24        2.380684
 
 -0.4722222E+00  0.2777778E-01  0.1262379E-14  0.6172840E-02
    1      -10.541587
    2      -10.466276
    3      -10.198682
    4      -10.101239
    5       -4.643557
    6       -4.534869
    7       -4.341507
    8       -4.214600
    9       -3.380512
   10       -3.348034
   11       -2.459818
   12       -2.335219
   13       -2.176564
   14       -2.084448
   15       -1.334969
   16       -1.252481
   17       -1.098469
   18       -0.961852
   19        1.453272
   20        1.506261
   21        1.806233
   22        1.810327
   23        2.222097
   24        2.380684
 
 -0.4166667E+00  0.2777778E-01  0.1262379E-14  0.6172840E-02
    1      -10.822089
    2      -10.576945
    3      -10.217976
    4       -9.976485
    5       -4.638898
    6       -4.465365
    7       -4.319131
    8       -3.844652
    9       -3.317376
   10       -3.227088
   11       -2.751143
   12       -2.611248
   13       -2.088392
   14       -1.872091
   15       -1.467386
   16       -1.304120
   17       -1.004312
   18       -0.665328
   19        1.274515
   20        1.460128
   21        1.811550
   22        1.910129
   23        2.164256
   24        2.495076
 
 -0.3611111E+00  0.2777778E-01  0.1262379E-14  0.6172840E-02
    1      -11.160030
    2      -10.749710
    3      -10.262951
    4       -9.942626
    5       -4.470493
    6       -4.344055
    7       -4.310942
    8       -3.412492
    9       -3.256638
   10       -3.092169
   11       -2.837823
   12       -2.799872
   13       -2.225840
   14       -1.687916
   15       -1.440780
   16       -1.325515
   17       -0.851033
   18       -0.391675
   19        1.014500
   20        1.370783
   21        1.755991
   22        2.088954
   23        2.279088
   24        2.487201
 
 -0.3055556E+00  0.2777778E-01  0.1262379E-14  0.6172840E-02
    1      -11.495076
    2      -10.941025
    3      -10.345816
    4      -10.000578
    5       -4.442984
    6       -4.316598
    7       -3.964868
    8       -3.479948
    9       -3.331242
   10       -2.807753
   11       -2.682860
   12       -2.596895
   13       -2.242133
   14       -1.528881
   15       -1.406434
   16       -1.225078
   17       -0.690671
   18       -0.179314
   19        0.739682
   20        1.322306
   21        1.731291
   22        2.258661
   23        2.346770
   24        2.465827
 
 -0.2500000E+00  0.2777778E-01  0.1262379E-14  0.6172840E-02
    1      -11.799427
    2      -11.127166
    3      -10.450372
    4      -10.113858
    5       -4.623179
    6       -4.264348
    7       -3.779184
    8       -3.476075
    9       -3.310909
   10       -2.661307
   11       -2.518010
   12       -2.426362
   13       -1.703863
   14       -1.416741
   15       -1.349504
   16       -0.981796
   17       -0.542170
   18       -0.044257
   19        0.501332
   20        1.349853
   21        1.830190
   22        2.241432
   23        2.360505
   24        2.509274
 
 -0.1944444E+00  0.2777778E-01  0.1262379E-14  0.6172840E-02
    1      -12.056744
    2      -11.291732
    3      -10.557336
    4      -10.243846
    5       -4.838754
    6       -4.264149
    7       -4.045499
    8       -3.429812
    9       -2.848926
   10       -2.622828
   11       -2.306917
   12       -2.206174
   13       -1.393181
   14       -1.227731
   15       -1.079239
   16       -0.705612
   17       -0.330647
   18        0.007312
   19        0.354040
   20        1.459769
   21        2.099447
   22        2.216660
   23        2.391220
   24        2.419051
 
 -0.1388889E+00  0.2777778E-01  0.1262379E-14  0.6172840E-02
    1      -12.256858
    2      -11.423491
    3      -10.650657
    4      -10.361715
    5       -5.029939
    6       -4.352801
    7       -4.214849
    8       -3.471613
    9       -2.548421
   10       -2.458344
   11       -2.120994
   12       -1.939203
   13       -1.347212
   14       -1.027206
   15       -0.803480
   16       -0.521824
   17       -0.014174
   18        0.087682
   19        0.361653
   20        1.633635
   21        2.199058
   22        2.299312
   23        2.410013
   24        2.568339
 
 -0.8333333E-01  0.2777778E-01  0.1262379E-14  0.6172840E-02
    1      -12.393368
    2      -11.515038
    3      -10.718829
    4      -10.448953
    5       -5.168554
    6       -4.488647
    7       -4.278975
    8       -3.521496
    9       -2.469022
   10       -2.174350
   11       -2.052132
   12       -1.709011
   13       -1.316842
   14       -0.913222
   15       -0.708576
   16       -0.387570
   17       -0.005782
   18        0.442215
   19        0.584517
   20        1.663340
   21        2.142048
   22        2.364287
   23        2.435195
   24        3.115044
 
 -0.2777778E-01  0.2777778E-01  0.1262379E-14  0.6172840E-02
    1      -12.462505
    2      -11.561864
    3      -10.754630
    4      -10.494947
    5       -5.240776
    6       -4.567280
    7       -4.308392
    8       -3.553078
    9       -2.429677
   10       -2.015777
   11       -1.958443
   12       -1.650497
   13       -1.318247
   14       -0.954034
   15       -0.675467
   16       -0.216918
   17       -0.000463
   18        0.593948
   19        0.898690
   20        1.517834
   21        2.035772
   22        2.427518
   23        2.621129
   24        3.526155
 
  0.2777778E-01  0.8333333E-01  0.1262379E-14  0.6172840E-02
    1      -12.444160
    2      -11.552906
    3      -10.795770
    4      -10.504049
    5       -5.216519
    6       -4.516400
    7       -4.290045
    8       -3.527677
    9       -2.479571
   10       -2.018044
   11       -1.935914
   12       -1.650567
   13       -1.398387
   14       -0.887763
   15       -0.703609
   16       -0.226712
   17        0.002762
   18        0.533017
   19        0.882916
   20        1.514569
   21        2.002770
   22        2.414747
   23        2.654115
   24        3.496930
 
  0.8333333E-01  0.8333333E-01  0.1262379E-14  0.6172840E-02
    1      -12.375218
    2      -11.506155
    3      -10.758107
    4      -10.459068
    5       -5.142977
    6       -4.437364
    7       -4.264572
    8       -3.495023
    9       -2.520063
   10       -2.187009
   11       -2.027843
   12       -1.701297
   13       -1.368798
   14       -0.891845
   15       -0.733675
   16       -0.375191
   17       -0.021714
   18        0.346529
   19        0.657591
   20        1.606911
   21        2.084518
   22        2.404678
   23        2.453591
   24        3.133788
 
  0.1388889E+00  0.8333333E-01  0.1262379E-14  0.6172840E-02
    1      -12.239118
    2      -11.414778
    3      -10.686545
    4      -10.373401
    5       -5.001818
    6       -4.302431
    7       -4.207881
    8       -3.445510
    9       -2.597377
   10       -2.450022
   11       -2.150156
   12       -1.895495
   13       -1.384571
   14       -1.047429
   15       -0.812137
   16       -0.508265
   17       -0.055105
   18        0.037822
   19        0.437123
   20        1.591959
   21        2.098543
   22        2.361939
   23        2.396840
   24        2.638146
 
  0.1944444E+00  0.8333333E-01  0.1262379E-14  0.6172840E-02
    1      -12.039681
    2      -11.283326
    3      -10.588806
    4      -10.256849
    5       -4.807812
    6       -4.238172
    7       -4.030671
    8       -3.411252
    9       -2.839641
   10       -2.630572
   11       -2.394599
   12       -2.131838
   13       -1.440034
   14       -1.299927
   15       -1.000635
   16       -0.729214
   17       -0.326471
   18       -0.037234
   19        0.402551
   20        1.457524
   21        2.034491
   22        2.159832
   23        2.399697
   24        2.536661
 
  0.2500000E+00  0.8333333E-01  0.1262379E-14  0.6172840E-02
    1      -11.783382
    2      -11.119258
    3      -10.476895
    4      -10.126971
    5       -4.596813
    6       -4.248758
    7       -3.799616
    8       -3.433851
    9       -3.300569
   10       -2.646916
   11       -2.576877
   12       -2.393525
   13       -1.810024
   14       -1.429310
   15       -1.243476
   16       -0.990379
   17       -0.535457
   18       -0.098702
   19        0.533646
   20        1.362990
   21        1.815724
   22        2.166746
   23        2.361639
   24        2.622332
 
  0.3055556E+00  0.8333333E-01  0.1262379E-14  0.6172840E-02
    1      -11.480581
    2      -10.933869
    3      -10.367205
    4      -10.011712
    5       -4.480766
    6       -4.274620
    7       -3.948750
    8       -3.480789
    9       -3.333573
   10       -2.791272
   11       -2.692168
   12       -2.609555
   13       -2.259149
   14       -1.515171
   15       -1.353613
   16       -1.221030
   17       -0.695317
   18       -0.227982
   19        0.756723
   20        1.342167
   21        1.726168
   22        2.220295
   23        2.321097
   24        2.583859
 
  0.3611111E+00  0.8333333E-01  0.1262379E-14  0.6172840E-02
    1      -11.147977
    2      -10.743592
    3      -10.279208
    4       -9.949234
    5       -4.598967
    6       -4.330500
    7       -4.188473
    8       -3.496417
    9       -3.308536
   10       -2.992375
   11       -2.826111
   12       -2.796102
   13       -2.200952
   14       -1.671940
   15       -1.395290
   16       -1.324550
   17       -0.864873
   18       -0.421855
   19        1.016425
   20        1.395245
   21        1.755907
   22        2.088950
   23        2.315236
   24        2.507897
 
  0.4166667E+00  0.8333333E-01  0.1262379E-14  0.6172840E-02
    1      -10.814268
    2      -10.572197
    3      -10.228881
    4       -9.976540
    5       -4.753918
    6       -4.410420
    7       -4.329179
    8       -3.874212
    9       -3.361155
   10       -3.111763
   11       -2.759761
   12       -2.588120
   13       -2.067453
   14       -1.858566
   15       -1.415744
   16       -1.304219
   17       -1.026624
   18       -0.669278
   19        1.265224
   20        1.483822
   21        1.820836
   22        1.929975
   23        2.200701
   24        2.490268
 
  0.4722222E+00  0.8333333E-01  0.1262379E-14  0.6172840E-02
    1      -10.541175
    2      -10.464661
    3      -10.200647
    4      -10.095503
    5       -4.745720
    6       -4.574040
    7       -4.351752
    8       -4.195013
    9       -3.355478
   10       -3.268868
   11       -2.467621
   12       -2.323916
   13       -2.156023
   14       -2.067471
   15       -1.304599
   16       -1.237956
   17       -1.119433
   18       -0.943308
   19        1.446602
   20        1.517303
   21        1.830351
   22        1.839371
   23        2.234102
   24        2.380473
 
 -0.4722222E+00  0.8333333E-01  0.1262379E-14  0.6172840E-02
    1      -10.541175
    2      -10.464661
    3      -10.200647
    4      -10.095503
    5       -4.745720
    6       -4.574040
    7       -4.351752
    8       -4.195013
    9       -3.355478
   10       -3.268868
   11       -2.467621
   12       -2.323916
   13       -2.156023
   14       -2.067471
   15       -1.304599
   16       -1.237956
   17       -1.119433
   18       -0.943308
   19        1.446602
   20        1.517303
   21        1.830351
   22        1.839371
   23        2.234102
   24        2.380473
 
 -0.4166667E+00  0.8333333E-01  0.1262379E-14  0.6172840E-02
    1      -10.814268
    2      -10.572197
    3      -10.228881
    4       -9.976540
    5       -4.753918
    6       -4.410420
    7       -4.329179
    8       -3.874212
    9       -3.361155
   10       -3.111763
   11       -2.759761
   12       -2.588120
   13       -2.067453
   14       -1.858566
   15       -1.415744
   16       -1.304219
   17       -1.026624
   18       -0.669278
   19        1.265224
   20        1.483822
   21        1.820836
   22        1.929975
   23        2.200701
   24        2.490268
 
 -0.3611111E+00  0.8333333E-01  0.1262379E-14  0.6172840E-02
    1      -11.147977
    2      -10.743592
    3      -10.279208
    4       -9.949234
    5       -4.598967
    6       -4.330500
    7       -4.188473
    8       -3.496417
    9       -3.308536
   10       -2.992375
   11       -2.826111
   12       -2.796102
   13       -2.200952
   14       -1.671940
   15       -1.395290
   16       -1.324550
   17       -0.864873
   18       -0.421855
   19        1.016425
   20        1.395245
   21        1.755907
   22        2.088950
   23        2.315236
   24        2.507897
 
 -0.3055556E+00  0.8333333E-01  0.1262379E-14  0.6172840E-02
    1      -11.480581
    2      -10.933869
    3      -10.367205
    4      -10.011712
    5       -4.480766
    6       -4.274620
    7       -3.948750
    8       -3.480789
    9       -3.333573
   10       -2.791272
   11       -2.692168
   12       -2.609555
   13       -2.259149
   14       -1.515171
   15       -1.353613
   16       -1.221030
   17       -0.695317
   18       -0.227982
   19        0.756723
   20        1.342167
   21        1.726168
   22        2.220295
   23        2.321097
   24        2.583859
 
 -0.2500000E+00  0.8333333E-01  0.1262379E-14  0.6172840E-02
    1      -11.783382
    2      -11.119258
    3      -10.476895
    4      -10.126971
    5       -4.596813
    6       -4.248758
    7       -3.799616
    8       -3.433851
    9       -3.300569
   10       -2.646916
   11       -2.576877
   12       -2.393525
   13       -1.810024
   14       -1.429310
   15       -1.243476
   16       -0.990379
   17       -0.535457
   18       -0.098702
   19        0.533646
   20        1.362990
   21        1.815724
   22        2.166746
   23        2.361639
   24        2.622332
 
 -0.1944444E+00  0.8333333E-01  0.1262379E-14  0.6172840E-02
    1      -12.039681
    2      -11.283326
    3      -10.588806
    4      -10.256849
    5       -4.807812
    6       -4.238172
    7       -4.030671
    8       -3.411252
    9       -2.839641
   10       -2.630572
   11       -2.394599
   12       -2.131838
   13       -1.440034
   14       -1.299927
   15       -1.000635
   16       -0.729214
   17       -0.326471
   18       -0.037234
   19        0.402551
   20        1.457524
   21        2.034491
   22        2.159832
   23        2.399697
   24        2.536661
 
 -0.1388889E+00  0.8333333E-01  0.1262379E-14  0.6172840E-02
    1      -12.239118
    2      -11.414778
    3      -10.686545
    4      -10.373401
    5       -5.001818
    6       -4.302431
    7       -4.207881
    8       -3.445510
    9       -2.597377
   10       -2.450022
   11       -2.150156
   12       -1.895495
   13       -1.384571
   14       -1.047429
   15       -0.812137
   16       -0.508265
   17       -0.055105
   18        0.037822
   19        0.437123
   20        1.591959
   21        2.098543
   22        2.361939
   23        2.396840
   24        2.638146
 
 -0.8333333E-01  0.8333333E-01  0.1262379E-14  0.6172840E-02
    1      -12.375218
    2      -11.506155
    3      -10.758107
    4      -10.459068
    5       -5.142977
    6       -4.437364
    7       -4.264572
    8       -3.495023
    9       -2.520063
   10       -2.187009
   11       -2.027843
   12       -1.701297
   13       -1.368798
   14       -0.891845
   15       -0.733675
   16       -0.375191
   17       -0.021714
   18        0.346529
   19        0.657591
   20        1.606911
   21        2.084518
   22        2.404678
   23        2.453591
   24        3.133788
 
 -0.2777778E-01  0.8333333E-01  0.1262379E-14  0.6172840E-02
    1      -12.444160
    2      -11.552906
    3      -10.795770
    4      -10.504049
    5       -5.216519
    6       -4.516400
    7       -4.290045
    8       -3.527677
    9       -2.479571
   10       -2.018044
   11       -1.935914
   12       -1.650567
   13       -1.398387
   14       -0.887763
   15       -0.703609
   16       -0.226712
   17        0.002762
   18        0.533017
   19        0.882916
   20        1.514569
   21        2.002770
   22        2.414747
   23        2.654115
   24        3.496930
 
  0.2777778E-01  0.1388889E+00  0.1262379E-14  0.6172840E-02
    1      -12.407702
    2      -11.535684
    3      -10.871319
    4      -10.524685
    5       -5.168079
    6       -4.434294
    7       -4.238023
    8       -3.486584
    9       -2.567321
   10       -2.015432
   11       -1.899194
   12       -1.652860
   13       -1.496907
   14       -0.824569
   15       -0.741035
   16       -0.246708
   17       -0.008004
   18        0.431488
   19        0.838511
   20        1.511163
   21        1.946887
   22        2.385466
   23        2.712725
   24        3.459573
 
  0.8333333E-01  0.1388889E+00  0.1262379E-14  0.6172840E-02
    1      -12.339164
    2      -11.489051
    3      -10.830889
    4      -10.480909
    5       -5.092495
    6       -4.354313
    7       -4.219798
    8       -3.450678
    9       -2.613396
   10       -2.200483
   11       -1.986772
   12       -1.689211
   13       -1.446670
   14       -0.874952
   15       -0.771978
   16       -0.360594
   17       -0.060139
   18        0.239053
   19        0.717206
   20        1.517111
   21        2.011657
   22        2.389248
   23        2.525980
   24        3.165499
 
  0.1388889E+00  0.1388889E+00  0.1262379E-14  0.6172840E-02
    1      -12.203880
    2      -11.397972
    3      -10.754017
    4      -10.397157
    5       -4.947227
    6       -4.204190
    7       -4.193690
    8       -3.399645
    9       -2.689929
   10       -2.444086
   11       -2.163675
   12       -1.841481
   13       -1.454156
   14       -1.077788
   15       -0.830233
   16       -0.495049
   17       -0.094971
   18       -0.052944
   19        0.537763
   20        1.507834
   21        2.021024
   22        2.329350
   23        2.442218
   24        2.722912
 
  0.1944444E+00  0.1388889E+00  0.1262379E-14  0.6172840E-02
    1      -12.005798
    2      -11.267068
    3      -10.648889
    4      -10.282205
    5       -4.748237
    6       -4.191834
    7       -3.996015
    8       -3.381208
    9       -2.831734
   10       -2.654406
   11       -2.465520
   12       -2.067978
   13       -1.544027
   14       -1.338425
   15       -0.936857
   16       -0.748586
   17       -0.337090
   18       -0.114961
   19        0.488979
   20        1.432111
   21        1.954573
   22        2.128892
   23        2.418384
   24        2.628844
 
  0.2500000E+00  0.1388889E+00  0.1262379E-14  0.6172840E-02
    1      -11.751531
    2      -11.103920
    3      -10.528121
    4      -10.152106
    5       -4.545726
    6       -4.217758
    7       -3.817219
    8       -3.430475
    9       -3.222031
   10       -2.662641
   11       -2.624044
   12       -2.372946
   13       -1.928687
   14       -1.430897
   15       -1.126450
   16       -1.001391
   17       -0.535759
   18       -0.192269
   19        0.595157
   20        1.370332
   21        1.792182
   22        2.102396
   23        2.379259
   24        2.726216
 
  0.3055556E+00  0.1388889E+00  0.1262379E-14  0.6172840E-02
    1      -11.451838
    2      -10.919981
    3      -10.408769
    4      -10.033133
    5       -4.517663
    6       -4.227593
    7       -3.914852
    8       -3.523354
    9       -3.298489
   10       -2.793925
   11       -2.713088
   12       -2.615890
   13       -2.255795
   14       -1.495754
   15       -1.266409
   16       -1.211641
   17       -0.707370
   18       -0.312512
   19        0.791776
   20        1.366976
   21        1.719817
   22        2.157524
   23        2.354051
   24        2.707757
 
  0.3611111E+00  0.1388889E+00  0.1262379E-14  0.6172840E-02
    1      -11.124137
    2      -10.731742
    3      -10.310686
    4       -9.962344
    5       -4.710226
    6       -4.331070
    7       -4.076940
    8       -3.597695
    9       -3.365859
   10       -2.899571
   11       -2.798921
   12       -2.778856
   13       -2.150884
   14       -1.640745
   15       -1.339487
   16       -1.300473
   17       -0.891364
   18       -0.472293
   19        1.025150
   20        1.428303
   21        1.761114
   22        2.084327
   23        2.376026
   24        2.558087
 
  0.4166667E+00  0.1388889E+00  0.1262379E-14  0.6172840E-02
    1      -10.798914
    2      -10.563164
    3      -10.249244
    4       -9.977559
    5       -4.880518
    6       -4.397804
    7       -4.365092
    8       -3.905181
    9       -3.349736
   10       -2.997333
   11       -2.775498
   12       -2.546459
   13       -2.021055
   14       -1.825601
   15       -1.352958
   16       -1.284050
   17       -1.065618
   18       -0.672172
   19        1.256159
   20        1.510957
   21        1.847066
   22        1.958955
   23        2.276355
   24        2.483065
 
  0.4722222E+00  0.1388889E+00  0.1262379E-14  0.6172840E-02
    1      -10.539983
    2      -10.462425
    3      -10.202720
    4      -10.085926
    5       -4.875398
    6       -4.680765
    7       -4.351949
    8       -4.187523
    9       -3.283257
   10       -3.166538
   11       -2.485503
   12       -2.321486
   13       -2.097567
   14       -2.019419
   15       -1.296068
   16       -1.210772
   17       -1.122730
   18       -0.903708
   19        1.438544
   20        1.526740
   21        1.881609
   22        1.890467
   23        2.260799
   24        2.381822
 
 -0.4722222E+00  0.1388889E+00  0.1262379E-14  0.6172840E-02
    1      -10.539983
    2      -10.462425
    3      -10.202720
    4      -10.085926
    5       -4.875398
    6       -4.680765
    7       -4.351949
    8       -4.187523
    9       -3.283257
   10       -3.166538
   11       -2.485503
   12       -2.321486
   13       -2.097567
   14       -2.019419
   15       -1.296068
   16       -1.210772
   17       -1.122730
   18       -0.903708
   19        1.438544
   20        1.526740
   21        1.881608
   22        1.890467
   23        2.260799
   24        2.381822
 
 -0.4166667E+00  0.1388889E+00  0.1262379E-14  0.6172840E-02
    1      -10.798914
    2      -10.563164
    3      -10.249244
    4       -9.977559
    5       -4.880518
    6       -4.397804
    7       -4.365092
    8       -3.905181
    9       -3.349736
   10       -2.997333
   11       -2.775498
   12       -2.546459
   13       -2.021055
   14       -1.825601
   15       -1.352958
   16       -1.284050
   17       -1.065618
   18       -0.672172
   19        1.256159
   20        1.510957
   21        1.847066
   22        1.958955
   23        2.276355
   24        2.483065
 
 -0.3611111E+00  0.1388889E+00  0.1262379E-14  0.6172840E-02
    1      -11.124137
    2      -10.731742
    3      -10.310686
    4       -9.962344
    5       -4.710226
    6       -4.331070
    7       -4.076940
    8       -3.597695
    9       -3.365859
   10       -2.899571
   11       -2.798921
   12       -2.778856
   13       -2.150884
   14       -1.640745
   15       -1.339487
   16       -1.300473
   17       -0.891364
   18       -0.472293
   19        1.025150
   20        1.428303
   21        1.761114
   22        2.084327
   23        2.376026
   24        2.558087
 
 -0.3055556E+00  0.1388889E+00  0.1262379E-14  0.6172840E-02
    1      -11.451838
    2      -10.919981
    3      -10.408769
    4      -10.033133
    5       -4.517663
    6       -4.227593
    7       -3.914852
    8       -3.523354
    9       -3.298489
   10       -2.793925
   11       -2.713088
   12       -2.615890
   13       -2.255795
   14       -1.495754
   15       -1.266409
   16       -1.211641
   17       -0.707370
   18       -0.312512
   19        0.791776
   20        1.366976
   21        1.719817
   22        2.157525
   23        2.354051
   24        2.707757
 
 -0.2500000E+00  0.1388889E+00  0.1262379E-14  0.6172840E-02
    1      -11.751531
    2      -11.103920
    3      -10.528121
    4      -10.152106
    5       -4.545726
    6       -4.217758
    7       -3.817219
    8       -3.430475
    9       -3.222031
   10       -2.662641
   11       -2.624044
   12       -2.372946
   13       -1.928687
   14       -1.430897
   15       -1.126450
   16       -1.001391
   17       -0.535759
   18       -0.192269
   19        0.595157
   20        1.370332
   21        1.792182
   22        2.102396
   23        2.379259
   24        2.726216
 
 -0.1944444E+00  0.1388889E+00  0.1262379E-14  0.6172840E-02
    1      -12.005798
    2      -11.267068
    3      -10.648889
    4      -10.282205
    5       -4.748237
    6       -4.191834
    7       -3.996015
    8       -3.381208