       N       E                     dE             d eps       ncg     rms          rms(c)
DAV:   1     0.185994913442E+03    0.18599E+03   -0.95555E+03  7776   0.792E+02
DAV:   2    -0.182344872433E+02   -0.20423E+03   -0.19910E+03 11536   0.177E+02
DAV:   3    -0.367492018134E+02   -0.18515E+02   -0.18277E+02 10304   0.595E+01
DAV:   4    -0.374173689498E+02   -0.66817E+00   -0.66595E+00 12448   0.127E+01
DAV:   5    -0.374277256426E+02   -0.10357E-01   -0.10351E-01 11256   0.175E+00    0.216E+01
DAV:   6    -0.364937699427E+02    0.93396E+00   -0.43914E+00 10832   0.975E+00    0.868E+00
DAV:   7    -0.365304745691E+02   -0.36705E-01   -0.60714E+00  9928   0.118E+01    0.656E+00
DAV:   8    -0.360114128054E+02    0.51906E+00   -0.14621E+00 10208   0.635E+00    0.230E+00
DAV:   9    -0.360030477341E+02    0.83651E-02   -0.34384E-01 11848   0.274E+00    0.110E+00
DAV:  10    -0.359971191554E+02    0.59286E-02   -0.32933E-02 10296   0.983E-01    0.512E-01
DAV:  11    -0.359958884443E+02    0.12307E-02   -0.73124E-03 11008   0.464E-01    0.259E-01
DAV:  12    -0.359953541193E+02    0.53432E-03   -0.31726E-03 11400   0.302E-01    0.107E-01
DAV:  13    -0.359951944750E+02    0.15964E-03   -0.85462E-04 11488   0.150E-01    0.464E-02
DAV:  14    -0.359949755115E+02    0.21896E-03   -0.19326E-04  9504   0.587E-02    0.348E-02
DAV:  15    -0.359947254977E+02    0.25001E-03   -0.37969E-04  9640   0.718E-02    0.350E-02
DAV:  16    -0.359947651171E+02   -0.39619E-04   -0.21005E-05 11304   0.203E-02    0.269E-02
DAV:  17    -0.359949214787E+02   -0.15636E-03   -0.22680E-05 10912   0.229E-02    0.676E-03
DAV:  18    -0.359950409698E+02   -0.11949E-03   -0.19808E-05  9248   0.173E-02    0.149E-02
DAV:  19    -0.359951178112E+02   -0.76841E-04   -0.28688E-06  8928   0.780E-03    0.265E-03
DAV:  20    -0.359951732026E+02   -0.55391E-04   -0.15462E-06  7336   0.569E-03    0.472E-03
DAV:  21    -0.359951870523E+02   -0.13850E-04   -0.30276E-07  6360   0.216E-03    0.178E-03
DAV:  22    -0.359951936544E+02   -0.66021E-05   -0.28937E-07  6304   0.166E-03    0.144E-03
DAV:  23    -0.359951948232E+02   -0.11689E-05   -0.12775E-07  5976   0.137E-03    0.913E-04
DAV:  24    -0.359951949215E+02   -0.98252E-07   -0.24302E-08  5288   0.738E-04
   1 F= -.35995195E+02 E0= -.35981871E+02  d E =-.359952E+02
       N       E                     dE             d eps       ncg     rms          rms(c)
DAV:   1    -0.359952295397E+02   -0.34716E-04   -0.79301E-03  7824   0.430E-01    0.403E-02
DAV:   2    -0.359952330269E+02   -0.34872E-05   -0.87916E-05 10288   0.510E-02    0.185E-02
DAV:   3    -0.359952316202E+02    0.14066E-05   -0.61539E-06  9200   0.139E-02    0.892E-03
DAV:   4    -0.359952309551E+02    0.66512E-06   -0.38035E-06  8128   0.107E-02
   2 F= -.35995231E+02 E0= -.35981875E+02  d E =-.360336E-04
       N       E                     dE             d eps       ncg     rms          rms(c)
DAV:   1    -0.359952302098E+02    0.14104E-05   -0.18723E-05  8112   0.215E-02    0.174E-03
DAV:   2    -0.359952302098E+02    0.14779E-10   -0.55120E-07  4896   0.415E-03
   3 F= -.35995230E+02 E0= -.35981876E+02  d E =-.352883E-04
