<?xml version="1.0" encoding="ISO-8859-1"?>
<modeling>
 <generator>
  <i name="program" type="string">vasp </i>
  <i name="version" type="string">5.3.5  </i>
  <i name="subversion" type="string">31Mar14 (build Mar 18 2017 11:34:20) complex                          parallel </i>
  <i name="platform" type="string">LinuxIFC </i>
  <i name="date" type="string">2017 10 27 </i>
  <i name="time" type="string">23:41:36 </i>
 </generator>
 <incar>
  <i type="string" name="SYSTEM"> 2D MoTe2 in a box</i>
  <i type="string" name="PREC">accurate</i>
  <i type="string" name="ALGO"> Normal</i>
  <i type="int" name="NELMDL">    -5</i>
  <i type="int" name="IBRION">     2</i>
  <i name="EDIFF">      0.00000100</i>
  <i type="int" name="NSW">  1000</i>
  <i type="int" name="ISIF">     2</i>
  <i type="int" name="ISYM">     0</i>
  <i name="ENCUT">    350.00000000</i>
  <i name="POTIM">      0.50000000</i>
  <i name="NELECT">     35.98000000</i>
  <i type="logical" name="LREAL"> F  </i>
  <i type="int" name="ISMEAR">    -1</i>
  <i name="SIGMA">      0.07759564</i>
  <i type="int" name="NWRITE">     3</i>
  <i type="logical" name="LWAVE"> F  </i>
  <i type="logical" name="LCHARG"> F  </i>
 </incar>
 <kpoints>
  <generation param="Monkhorst-Pack">
   <v type="int" name="divisions">      18       18        1 </v>
   <v name="usershift">      0.00000000       0.00000000       0.00000000 </v>
   <v name="genvec1">      0.05555556       0.00000000       0.00000000 </v>
   <v name="genvec2">      0.00000000       0.05555556       0.00000000 </v>
   <v name="genvec3">      0.00000000       0.00000000       1.00000000 </v>
   <v name="shift">      0.50000000       0.50000000       0.00000000 </v>
  </generation>
  <varray name="kpointlist" >
   <v>       0.02777778       0.02777778       0.00000000 </v>
   <v>       0.08333333       0.02777778       0.00000000 </v>
   <v>       0.13888889       0.02777778       0.00000000 </v>
   <v>       0.19444444       0.02777778       0.00000000 </v>
   <v>       0.25000000       0.02777778       0.00000000 </v>
   <v>       0.30555556       0.02777778       0.00000000 </v>
   <v>       0.36111111       0.02777778       0.00000000 </v>
   <v>       0.41666667       0.02777778       0.00000000 </v>
   <v>       0.47222222       0.02777778       0.00000000 </v>
   <v>      -0.47222222       0.02777778       0.00000000 </v>
   <v>      -0.41666667       0.02777778       0.00000000 </v>
   <v>      -0.36111111       0.02777778       0.00000000 </v>
   <v>      -0.30555556       0.02777778       0.00000000 </v>
   <v>      -0.25000000       0.02777778       0.00000000 </v>
   <v>      -0.19444444       0.02777778       0.00000000 </v>
   <v>      -0.13888889       0.02777778       0.00000000 </v>
   <v>      -0.08333333       0.02777778       0.00000000 </v>
   <v>      -0.02777778       0.02777778       0.00000000 </v>
   <v>       0.02777778       0.08333333       0.00000000 </v>
   <v>       0.08333333       0.08333333       0.00000000 </v>
   <v>       0.13888889       0.08333333       0.00000000 </v>
   <v>       0.19444444       0.08333333       0.00000000 </v>
   <v>       0.25000000       0.08333333       0.00000000 </v>
   <v>       0.30555556       0.08333333       0.00000000 </v>
   <v>       0.36111111       0.08333333       0.00000000 </v>
   <v>       0.41666667       0.08333333       0.00000000 </v>
   <v>       0.47222222       0.08333333       0.00000000 </v>
   <v>      -0.47222222       0.08333333       0.00000000 </v>
   <v>      -0.41666667       0.08333333       0.00000000 </v>
   <v>      -0.36111111       0.08333333       0.00000000 </v>
   <v>      -0.30555556       0.08333333       0.00000000 </v>
   <v>      -0.25000000       0.08333333       0.00000000 </v>
   <v>      -0.19444444       0.08333333       0.00000000 </v>
   <v>      -0.13888889       0.08333333       0.00000000 </v>
   <v>      -0.08333333       0.08333333       0.00000000 </v>
   <v>      -0.02777778       0.08333333       0.00000000 </v>
   <v>       0.02777778       0.13888889       0.00000000 </v>
   <v>       0.08333333       0.13888889       0.00000000 </v>
   <v>       0.13888889       0.13888889       0.00000000 </v>
   <v>       0.19444444       0.13888889       0.00000000 </v>
   <v>       0.25000000       0.13888889       0.00000000 </v>
   <v>       0.30555556       0.13888889       0.00000000 </v>
   <v>       0.36111111       0.13888889       0.00000000 </v>
   <v>       0.41666667       0.13888889       0.00000000 </v>
   <v>       0.47222222       0.13888889       0.00000000 </v>
   <v>      -0.47222222       0.13888889       0.00000000 </v>
   <v>      -0.41666667       0.13888889       0.00000000 </v>
   <v>      -0.36111111       0.13888889       0.00000000 </v>
   <v>      -0.30555556       0.13888889       0.00000000 </v>
   <v>      -0.25000000       0.13888889       0.00000000 </v>
   <v>      -0.19444444       0.13888889       0.00000000 </v>
   <v>      -0.13888889       0.13888889       0.00000000 </v>
   <v>      -0.08333333       0.13888889       0.00000000 </v>
   <v>      -0.02777778       0.13888889       0.00000000 </v>
   <v>       0.02777778       0.19444444       0.00000000 </v>
   <v>       0.08333333       0.19444444       0.00000000 </v>
   <v>       0.13888889       0.19444444       0.00000000 </v>
   <v>       0.19444444       0.19444444       0.00000000 </v>
   <v>       0.25000000       0.19444444       0.00000000 </v>
   <v>       0.30555556       0.19444444       0.00000000 </v>
   <v>       0.36111111       0.19444444       0.00000000 </v>
   <v>       0.41666667       0.19444444       0.00000000 </v>
   <v>       0.47222222       0.19444444       0.00000000 </v>
   <v>      -0.47222222       0.19444444       0.00000000 </v>
   <v>      -0.41666667       0.19444444       0.00000000 </v>
   <v>      -0.36111111       0.19444444       0.00000000 </v>
   <v>      -0.30555556       0.19444444       0.00000000 </v>
   <v>      -0.25000000       0.19444444       0.00000000 </v>
   <v>      -0.19444444       0.19444444       0.00000000 </v>
   <v>      -0.13888889       0.19444444       0.00000000 </v>
   <v>      -0.08333333       0.19444444       0.00000000 </v>
   <v>      -0.02777778       0.19444444       0.00000000 </v>
   <v>       0.02777778       0.25000000       0.00000000 </v>
   <v>       0.08333333       0.25000000       0.00000000 </v>
   <v>       0.13888889       0.25000000       0.00000000 </v>
   <v>       0.19444444       0.25000000       0.00000000 </v>
   <v>       0.25000000       0.25000000       0.00000000 </v>
   <v>       0.30555556       0.25000000       0.00000000 </v>
   <v>       0.36111111       0.25000000       0.00000000 </v>
   <v>       0.41666667       0.25000000       0.00000000 </v>
   <v>       0.47222222       0.25000000       0.00000000 </v>
   <v>      -0.47222222       0.25000000       0.00000000 </v>
   <v>      -0.41666667       0.25000000       0.00000000 </v>
   <v>      -0.36111111       0.25000000       0.00000000 </v>
   <v>      -0.30555556       0.25000000       0.00000000 </v>
   <v>      -0.25000000       0.25000000       0.00000000 </v>
   <v>      -0.19444444       0.25000000       0.00000000 </v>
   <v>      -0.13888889       0.25000000       0.00000000 </v>
   <v>      -0.08333333       0.25000000       0.00000000 </v>
   <v>      -0.02777778       0.25000000       0.00000000 </v>
   <v>       0.02777778       0.30555556       0.00000000 </v>
   <v>       0.08333333       0.30555556       0.00000000 </v>
   <v>       0.13888889       0.30555556       0.00000000 </v>
   <v>       0.19444444       0.30555556       0.00000000 </v>
   <v>       0.25000000       0.30555556       0.00000000 </v>
   <v>       0.30555556       0.30555556       0.00000000 </v>
   <v>       0.36111111       0.30555556       0.00000000 </v>
   <v>       0.41666667       0.30555556       0.00000000 </v>
   <v>       0.47222222       0.30555556       0.00000000 </v>
   <v>      -0.47222222       0.30555556       0.00000000 </v>
   <v>      -0.41666667       0.30555556       0.00000000 </v>
   <v>      -0.36111111       0.30555556       0.00000000 </v>
   <v>      -0.30555556       0.30555556       0.00000000 </v>
   <v>      -0.25000000       0.30555556       0.00000000 </v>
   <v>      -0.19444444       0.30555556       0.00000000 </v>
   <v>      -0.13888889       0.30555556       0.00000000 </v>
   <v>      -0.08333333       0.30555556       0.00000000 </v>
   <v>      -0.02777778       0.30555556       0.00000000 </v>
   <v>       0.02777778       0.36111111       0.00000000 </v>
   <v>       0.08333333       0.36111111       0.00000000 </v>
   <v>       0.13888889       0.36111111       0.00000000 </v>
   <v>       0.19444444       0.36111111       0.00000000 </v>
   <v>       0.25000000       0.36111111       0.00000000 </v>
   <v>       0.30555556       0.36111111       0.00000000 </v>
   <v>       0.36111111       0.36111111       0.00000000 </v>
   <v>       0.41666667       0.36111111       0.00000000 </v>
   <v>       0.47222222       0.36111111       0.00000000 </v>
   <v>      -0.47222222       0.36111111       0.00000000 </v>
   <v>      -0.41666667       0.36111111       0.00000000 </v>
   <v>      -0.36111111       0.36111111       0.00000000 </v>
   <v>      -0.30555556       0.36111111       0.00000000 </v>
   <v>      -0.25000000       0.36111111       0.00000000 </v>
   <v>      -0.19444444       0.36111111       0.00000000 </v>
   <v>      -0.13888889       0.36111111       0.00000000 </v>
   <v>      -0.08333333       0.36111111       0.00000000 </v>
   <v>      -0.02777778       0.36111111       0.00000000 </v>
   <v>       0.02777778       0.41666667       0.00000000 </v>
   <v>       0.08333333       0.41666667       0.00000000 </v>
   <v>       0.13888889       0.41666667       0.00000000 </v>
   <v>       0.19444444       0.41666667       0.00000000 </v>
   <v>       0.25000000       0.41666667       0.00000000 </v>
   <v>       0.30555556       0.41666667       0.00000000 </v>
   <v>       0.36111111       0.41666667       0.00000000 </v>
   <v>       0.41666667       0.41666667       0.00000000 </v>
   <v>       0.47222222       0.41666667       0.00000000 </v>
   <v>      -0.47222222       0.41666667       0.00000000 </v>
   <v>      -0.41666667       0.41666667       0.00000000 </v>
   <v>      -0.36111111       0.41666667       0.00000000 </v>
   <v>      -0.30555556       0.41666667       0.00000000 </v>
   <v>      -0.25000000       0.41666667       0.00000000 </v>
   <v>      -0.19444444       0.41666667       0.00000000 </v>
   <v>      -0.13888889       0.41666667       0.00000000 </v>
   <v>      -0.08333333       0.41666667       0.00000000 </v>
   <v>      -0.02777778       0.41666667       0.00000000 </v>
   <v>       0.02777778       0.47222222       0.00000000 </v>
   <v>       0.08333333       0.47222222       0.00000000 </v>
   <v>       0.13888889       0.47222222       0.00000000 </v>
   <v>       0.19444444       0.47222222       0.00000000 </v>
   <v>       0.25000000       0.47222222       0.00000000 </v>
   <v>       0.30555556       0.47222222       0.00000000 </v>
   <v>       0.36111111       0.47222222       0.00000000 </v>
   <v>       0.41666667       0.47222222       0.00000000 </v>
   <v>       0.47222222       0.47222222       0.00000000 </v>
   <v>      -0.47222222       0.47222222       0.00000000 </v>
   <v>      -0.41666667       0.47222222       0.00000000 </v>
   <v>      -0.36111111       0.47222222       0.00000000 </v>
   <v>      -0.30555556       0.47222222       0.00000000 </v>
   <v>      -0.25000000       0.47222222       0.00000000 </v>
   <v>      -0.19444444       0.47222222       0.00000000 </v>
   <v>      -0.13888889       0.47222222       0.00000000 </v>
   <v>      -0.08333333       0.47222222       0.00000000 </v>
   <v>      -0.02777778       0.47222222       0.00000000 </v>
  </varray>
  <varray name="weights" >
   <v>       0.00617284 </v>
   <v>       0.00617284 </v>
   <v>       0.00617284 </v>
   <v>       0.00617284 </v>
   <v>       0.00617284 </v>
   <v>       0.00617284 </v>
   <v>       0.00617284 </v>
   <v>       0.00617284 </v>
   <v>       0.00617284 </v>
   <v>       0.00617284 </v>
   <v>       0.00617284 </v>
   <v>       0.00617284 </v>
   <v>       0.00617284 </v>
   <v>       0.00617284 </v>
   <v>       0.00617284 </v>
   <v>       0.00617284 </v>
   <v>       0.00617284 </v>
   <v>       0.00617284 </v>
   <v>       0.00617284 </v>
   <v>       0.00617284 </v>
   <v>       0.00617284 </v>
   <v>       0.00617284 </v>
   <v>       0.00617284 </v>
   <v>       0.00617284 </v>
   <v>       0.00617284 </v>
   <v>       0.00617284 </v>
   <v>       0.00617284 </v>
   <v>       0.00617284 </v>
   <v>       0.00617284 </v>
   <v>       0.00617284 </v>
   <v>       0.00617284 </v>
   <v>       0.00617284 </v>
   <v>       0.00617284 </v>
   <v>       0.00617284 </v>
   <v>       0.00617284 </v>
   <v>       0.00617284 </v>
   <v>       0.00617284 </v>
   <v>       0.00617284 </v>
   <v>       0.00617284 </v>
   <v>       0.00617284 </v>
   <v>       0.00617284 </v>
   <v>       0.00617284 </v>
   <v>       0.00617284 </v>
   <v>       0.00617284 </v>
   <v>       0.00617284 </v>
   <v>       0.00617284 </v>
   <v>       0.00617284 </v>
   <v>       0.00617284 </v>
   <v>       0.00617284 </v>
   <v>       0.00617284 </v>
   <v>       0.00617284 </v>
   <v>       0.00617284 </v>
   <v>       0.00617284 </v>
   <v>       0.00617284 </v>
   <v>       0.00617284 </v>
   <v>       0.00617284 </v>
   <v>       0.00617284 </v>
   <v>       0.00617284 </v>
   <v>       0.00617284 </v>
   <v>       0.00617284 </v>
   <v>       0.00617284 </v>
   <v>       0.00617284 </v>
   <v>       0.00617284 </v>
   <v>       0.00617284 </v>
   <v>       0.00617284 </v>
   <v>       0.00617284 </v>
   <v>       0.00617284 </v>
   <v>       0.00617284 </v>
   <v>       0.00617284 </v>
   <v>       0.00617284 </v>
   <v>       0.00617284 </v>
   <v>       0.00617284 </v>
   <v>       0.00617284 </v>
   <v>       0.00617284 </v>
   <v>       0.00617284 </v>
   <v>       0.00617284 </v>
   <v>       0.00617284 </v>
   <v>       0.00617284 </v>
   <v>       0.00617284 </v>
   <v>       0.00617284 </v>
   <v>       0.00617284 </v>
   <v>       0.00617284 </v>
   <v>       0.00617284 </v>
   <v>       0.00617284 </v>
   <v>       0.00617284 </v>
   <v>       0.00617284 </v>
   <v>       0.00617284 </v>
   <v>       0.00617284 </v>
   <v>       0.00617284 </v>
   <v>       0.00617284 </v>
   <v>       0.00617284 </v>
   <v>       0.00617284 </v>
   <v>       0.00617284 </v>
   <v>       0.00617284 </v>
   <v>       0.00617284 </v>
   <v>       0.00617284 </v>
   <v>       0.00617284 </v>
   <v>       0.00617284 </v>
   <v>       0.00617284 </v>
   <v>       0.00617284 </v>
   <v>       0.00617284 </v>
   <v>       0.00617284 </v>
   <v>       0.00617284 </v>
   <v>       0.00617284 </v>
   <v>       0.00617284 </v>
   <v>       0.00617284 </v>
   <v>       0.00617284 </v>
   <v>       0.00617284 </v>
   <v>       0.00617284 </v>
   <v>       0.00617284 </v>
   <v>       0.00617284 </v>
   <v>       0.00617284 </v>
   <v>       0.00617284 </v>
   <v>       0.00617284 </v>
   <v>       0.00617284 </v>
   <v>       0.00617284 </v>
   <v>       0.00617284 </v>
   <v>       0.00617284 </v>
   <v>       0.00617284 </v>
   <v>       0.00617284 </v>
   <v>       0.00617284 </v>
   <v>       0.00617284 </v>
   <v>       0.00617284 </v>
   <v>       0.00617284 </v>
   <v>       0.00617284 </v>
   <v>       0.00617284 </v>
   <v>       0.00617284 </v>
   <v>       0.00617284 </v>
   <v>       0.00617284 </v>
   <v>       0.00617284 </v>
   <v>       0.00617284 </v>
   <v>       0.00617284 </v>
   <v>       0.00617284 </v>
   <v>       0.00617284 </v>
   <v>       0.00617284 </v>
   <v>       0.00617284 </v>
   <v>       0.00617284 </v>
   <v>       0.00617284 </v>
   <v>       0.00617284 </v>
   <v>       0.00617284 </v>
   <v>       0.00617284 </v>
   <v>       0.00617284 </v>
   <v>       0.00617284 </v>
   <v>       0.00617284 </v>
   <v>       0.00617284 </v>
   <v>       0.00617284 </v>
   <v>       0.00617284 </v>
   <v>       0.00617284 </v>
   <v>       0.00617284 </v>
   <v>       0.00617284 </v>
   <v>       0.00617284 </v>
   <v>       0.00617284 </v>
   <v>       0.00617284 </v>
   <v>       0.00617284 </v>
   <v>       0.00617284 </v>
   <v>       0.00617284 </v>
   <v>       0.00617284 </v>
   <v>       0.00617284 </v>
   <v>       0.00617284 </v>
   <v>       0.00617284 </v>
   <v>       0.00617284 </v>
   <v>       0.00617284 </v>
  </varray>
 </kpoints>
 <parameters>
  <separator name="general" >
   <i type="string" name="SYSTEM">2D MoTe2 in a box</i>
   <i type="logical" name="LCOMPAT"> F  </i>
  </separator>
  <separator name="electronic" >
   <i type="string" name="PREC">accura</i>
   <i name="ENMAX">    350.00000000</i>
   <i name="ENAUG">    368.79200000</i>
   <i name="EDIFF">      0.00000100</i>
   <i type="int" name="IALGO">    38</i>
   <i type="int" name="IWAVPR">    11</i>
   <i type="int" name="NBANDS">    24</i>
   <i name="NELECT">     35.98000000</i>
   <i type="int" name="TURBO">     0</i>
   <i type="int" name="IRESTART">     0</i>
   <i type="int" name="NREBOOT">     0</i>
   <i type="int" name="NMIN">     0</i>
   <i name="EREF">      0.00000000</i>
   <separator name="electronic smearing" >
    <i type="int" name="ISMEAR">    -1</i>
    <i name="SIGMA">      0.07759564</i>
    <i name="KSPACING">      0.50000000</i>
    <i type="logical" name="KGAMMA"> T  </i>
   </separator>
   <separator name="electronic projectors" >
    <i type="logical" name="LREAL"> F  </i>
    <v name="ROPT">      0.00000000      0.00000000</v>
    <i type="int" name="LMAXPAW">  -100</i>
    <i type="int" name="LMAXMIX">     2</i>
    <i type="logical" name="NLSPLINE"> F  </i>
   </separator>
   <separator name="electronic startup" >
    <i type="int" name="ISTART">     0</i>
    <i type="int" name="ICHARG">     2</i>
    <i type="int" name="INIWAV">     1</i>
   </separator>
   <separator name="electronic spin" >
    <i type="int" name="ISPIN">     1</i>
    <i type="logical" name="LNONCOLLINEAR"> F  </i>
    <v name="MAGMOM">      1.00000000      1.00000000      1.00000000      1.00000000      1.00000000      1.00000000</v>
    <i name="NUPDOWN">     -1.00000000</i>
    <i type="logical" name="LSORBIT"> F  </i>
    <v name="SAXIS">      0.00000000      0.00000000      1.00000000</v>
    <i type="logical" name="LSPIRAL"> F  </i>
    <v name="QSPIRAL">      0.00000000      0.00000000      0.00000000</v>
    <i type="logical" name="LZEROZ"> F  </i>
   </separator>
   <separator name="electronic exchange-correlation" >
    <i type="logical" name="LASPH"> F  </i>
    <i type="logical" name="LMETAGGA"> F  </i>
   </separator>
   <separator name="electronic convergence" >
    <i type="int" name="NELM">    60</i>
    <i type="int" name="NELMDL">    -5</i>
    <i type="int" name="NELMIN">     2</i>
    <i name="ENINI">    350.00000000</i>
    <separator name="electronic convergence detail" >
     <i type="logical" name="LDIAG"> T  </i>
     <i type="logical" name="LSUBROT"> F  </i>
     <i name="WEIMIN">      0.00100000</i>
     <i name="EBREAK">      0.00000001</i>
     <i name="DEPER">      0.30000000</i>
     <i type="int" name="NRMM">     4</i>
     <i name="TIME">      0.40000000</i>
    </separator>
   </separator>
   <separator name="electronic mixer" >
    <i name="AMIX">      0.40000000</i>
    <i name="BMIX">      1.00000000</i>
    <i name="AMIN">      0.10000000</i>
    <i name="AMIX_MAG">      1.60000000</i>
    <i name="BMIX_MAG">      1.00000000</i>
    <separator name="electronic mixer details" >
     <i type="int" name="IMIX">     4</i>
     <i type="int" name="MAXMIX">   -45</i>
     <i name="WC">    100.00000000</i>
     <i type="int" name="INIMIX">     1</i>
     <i type="int" name="MIXPRE">     1</i>
     <i type="int" name="MREMOVE">     5</i>
    </separator>
   </separator>
   <separator name="electronic dipolcorrection" >
    <i type="logical" name="LDIPOL"> F  </i>
    <i type="logical" name="LMONO"> F  </i>
    <i type="int" name="IDIPOL">     0</i>
    <i name="EPSILON">      1.00000000</i>
    <v name="DIPOL">   -100.00000000   -100.00000000   -100.00000000</v>
    <i name="EFIELD">      0.00000000</i>
   </separator>
  </separator>
  <separator name="grids" >
   <i type="int" name="NGX">    24</i>
   <i type="int" name="NGY">    40</i>
   <i type="int" name="NGZ">    98</i>
   <i type="int" name="NGXF">    48</i>
   <i type="int" name="NGYF">    80</i>
   <i type="int" name="NGZF">   196</i>
   <i type="logical" name="ADDGRID"> F  </i>
  </separator>
  <separator name="ionic" >
   <i type="int" name="NSW">  1000</i>
   <i type="int" name="IBRION">     2</i>
   <i type="int" name="ISIF">     2</i>
   <i name="PSTRESS">      0.00000000</i>
   <i name="EDIFFG">      0.00001000</i>
   <i type="int" name="NFREE">     1</i>
   <i name="POTIM">      0.50000000</i>
   <i name="SMASS">     -3.00000000</i>
   <i name="SCALEE">      1.00000000</i>
  </separator>
  <separator name="ionic md" >
   <i name="TEBEG">      0.00010000</i>
   <i name="TEEND">      0.00010000</i>
   <i type="int" name="NBLOCK">     1</i>
   <i type="int" name="KBLOCK">  1000</i>
   <i type="int" name="NPACO">   256</i>
   <i name="APACO">     16.00000000</i>
  </separator>
  <separator name="symmetry" >
   <i type="int" name="ISYM">     0</i>
   <i name="SYMPREC">      0.00001000</i>
  </separator>
  <separator name="dos" >
   <i type="logical" name="LORBIT"> F  </i>
   <v name="RWIGS">     -1.00000000     -1.00000000</v>
   <i type="int" name="NEDOS">   301</i>
   <i name="EMIN">     10.00000000</i>
   <i name="EMAX">    -10.00000000</i>
   <i name="EFERMI">      0.00000000</i>
  </separator>
  <separator name="writing" >
   <i type="int" name="NWRITE">     3</i>
   <i type="logical" name="LWAVE"> F  </i>
   <i type="logical" name="LCHARG"> F  </i>
   <i type="logical" name="LPARD"> F  </i>
   <i type="logical" name="LVTOT"> F  </i>
   <i type="logical" name="LVHAR"> F  </i>
   <i type="logical" name="LELF"> F  </i>
   <i type="logical" name="LOPTICS"> F  </i>
   <v name="STM">      0.00000000      0.00000000      0.00000000      0.00000000      0.00000000      0.00000000      0.00000000</v>
  </separator>
  <separator name="performance" >
   <i type="int" name="NPAR">     8</i>
   <i type="int" name="NSIM">     4</i>
   <i type="int" name="NBLK">    -1</i>
   <i type="logical" name="LPLANE"> T  </i>
   <i type="logical" name="LSCALAPACK"> T  </i>
   <i type="logical" name="LSCAAWARE"> F  </i>
   <i type="logical" name="LSCALU"> F  </i>
   <i type="logical" name="LASYNC"> F  </i>
   <i type="logical" name="LORBITALREAL"> F  </i>
  </separator>
  <separator name="miscellaneous" >
   <i type="int" name="IDIOT">     3</i>
   <i type="logical" name="LMUSIC"> F  </i>
   <v name="POMASS">    127.60000000     95.94000000</v>
   <v name="DARWINR">      0.00000000      0.00000000</v>
   <v name="DARWINV">      1.00000000      1.00000000</v>
   <i type="logical" name="LCORR"> T  </i>
  </separator>
  <i type="logical" name="GGA_COMPAT"> T  </i>
  <i type="logical" name="LBERRY"> F  </i>
  <i type="int" name="ICORELEVEL">     0</i>
  <i type="logical" name="LDAU"> F  </i>
  <i type="int" name="I_CONSTRAINED_M">     0</i>
  <separator name="electronic exchange-correlation" >
   <i type="string" name="GGA">--</i>
   <i type="int" name="VOSKOWN">     0</i>
   <i type="logical" name="LHFCALC"> F  </i>
   <i type="string" name="PRECFOCK"></i>
   <i type="logical" name="LSYMGRAD"> F  </i>
   <i type="logical" name="LHFONE"> F  </i>
   <i type="logical" name="LRHFCALC"> F  </i>
   <i type="logical" name="LTHOMAS"> F  </i>
   <i type="logical" name="LMODELHF"> F  </i>
   <i name="ENCUT4O">     -1.00000000</i>
   <i type="int" name="EXXOEP">     0</i>
   <i type="int" name="FOURORBIT">     0</i>
   <i name="AEXX">      0.00000000</i>
   <i name="HFALPHA">      0.00000000</i>
   <i name="MCALPHA">      0.00000000</i>
   <i name="ALDAX">      1.00000000</i>
   <i name="AGGAX">      1.00000000</i>
   <i name="ALDAC">      1.00000000</i>
   <i name="AGGAC">      1.00000000</i>
   <i type="int" name="NKREDX">     1</i>
   <i type="int" name="NKREDY">     1</i>
   <i type="int" name="NKREDZ">     1</i>
   <i type="logical" name="SHIFTRED"> F  </i>
   <i type="logical" name="ODDONLY"> F  </i>
   <i type="logical" name="EVENONLY"> F  </i>
   <i type="int" name="LMAXFOCK">     0</i>
   <i type="int" name="NMAXFOCKAE">     0</i>
   <i type="logical" name="LFOCKAEDFT"> F  </i>
   <i name="HFSCREEN">      0.00000000</i>
   <i name="HFSCREENC">      0.00000000</i>
   <i type="int" name="NBANDSGWLOW">     0</i>
  </separator>
  <separator name="vdW DFT" >
   <i type="logical" name="LUSE_VDW"> F  </i>
   <i name="Zab_VDW">     -0.84910000</i>
   <i name="PARAM1">      0.12340000</i>
   <i name="PARAM2">      1.00000000</i>
   <i name="PARAM3">      0.00000000</i>
  </separator>
  <separator name="model GW" >
   <i type="int" name="MODEL_GW">     0</i>
   <i name="MODEL_EPS0">     35.17173760</i>
   <i name="MODEL_ALPHA">      1.00000000</i>
  </separator>
  <separator name="linear response parameters" >
   <i type="logical" name="LEPSILON"> F  </i>
   <i type="logical" name="LRPA"> F  </i>
   <i type="logical" name="LNABLA"> F  </i>
   <i type="logical" name="LVEL"> F  </i>
   <i type="int" name="KINTER">     0</i>
   <i name="CSHIFT">      0.10000000</i>
   <i name="OMEGAMAX">     -1.00000000</i>
   <i name="DEG_THRESHOLD">      0.00200000</i>
  </separator>
  <separator name="orbital magnetization" >
   <i type="logical" name="NUCIND"> F  </i>
   <v name="MAGPOS">      0.00000000      0.00000000      0.00000000</v>
   <i type="logical" name="LNICSALL"> T  </i>
   <i type="logical" name="ORBITALMAG"> F  </i>
   <i type="logical" name="LMAGBLOCH"> F  </i>
   <i type="logical" name="LCHIMAG"> F  </i>
   <i type="logical" name="LGAUGE"> T  </i>
   <i type="int" name="MAGATOM">     0</i>
   <v name="MAGDIPOL">      0.00000000      0.00000000      0.00000000</v>
   <v name="AVECCONST">      0.00000000      0.00000000      0.00000000</v>
  </separator>
  <separator name="response functions" >
   <i type="logical" name="LADDER"> F  </i>
   <i type="logical" name="LFXC"> F  </i>
   <i type="logical" name="LHARTREE"> T  </i>
   <i type="int" name="IBSE">     0</i>
   <i type="logical" name="LTCTE"> F  </i>
   <i type="logical" name="LTETE"> F  </i>
   <i type="logical" name="LTRIPLET"> F  </i>
   <i type="logical" name="LFXCEPS"> F  </i>
   <i type="logical" name="LFXHEG"> F  </i>
   <i type="logical" name="L2ORDER"> F  </i>
   <i type="logical" name="LUSEW"> F  </i>
   <i name="ENCUTGW">     -2.00000000</i>
   <i name="ENCUTGWSOFT">     -2.00000000</i>
   <i name="ENCUTLF">     -1.00000000</i>
   <i type="int" name="LMAXMP2">    -1</i>
   <i name="SCISSOR">      0.00000000</i>
   <i type="int" name="NOMEGA">     0</i>
   <i type="int" name="NOMEGAR">     0</i>
   <i type="int" name="NBANDSGW">    -1</i>
   <i type="int" name="NBANDSO">    -1</i>
   <i type="int" name="NBANDSV">    -1</i>
   <i type="int" name="NELM">     1</i>
   <i type="int" name="DIM">     3</i>
   <i type="int" name="ANTIRES">     0</i>
   <i name="OMEGAMAX">    -30.00000000</i>
   <i name="OMEGAMIN">    -30.00000000</i>
   <i name="OMEGATL">   -200.00000000</i>
   <i type="int" name="OMEGAGRID">     0</i>
   <i name="CSHIFT">     -0.10000000</i>
   <i type="logical" name="SELFENERGY"> F  </i>
   <i type="logical" name="LSPECTRAL"> F  </i>
   <i type="logical" name="ODDONLYGW"> F  </i>
   <i type="logical" name="EVENONLYGW"> F  </i>
   <i type="int" name="NKREDLFX">     1</i>
   <i type="int" name="NKREDLFY">     1</i>
   <i type="int" name="NKREDLFZ">     1</i>
   <i type="int" name="MAXMEM">  1800</i>
   <i type="int" name="TELESCOPE">     0</i>
   <i type="int" name="TAUPAR">     1</i>
  </separator>
  <separator name="External order field" >
   <i name="OFIELD_KAPPA">      0.00000000</i>
   <v name="OFIELD_K">      0.00000000      0.00000000      0.00000000</v>
   <i name="OFIELD_Q6_NEAR">      0.00000000</i>
   <i name="OFIELD_Q6_FAR">      0.00000000</i>
   <i name="OFIELD_A">      0.00000000</i>
  </separator>
 </parameters>
 <atominfo>
  <atoms>       6 </atoms>
  <types>       2 </types>
  <array name="atoms" >
   <dimension dim="1">ion</dimension>
   <field type="string">element</field>
   <field type="int">atomtype</field>
   <set>
    <rc><c>Te</c><c>   1</c></rc>
    <rc><c>Te</c><c>   1</c></rc>
    <rc><c>Te</c><c>   1</c></rc>
    <rc><c>Te</c><c>   1</c></rc>
    <rc><c>Mo</c><c>   2</c></rc>
    <rc><c>Mo</c><c>   2</c></rc>
   </set>
  </array>
  <array name="atomtypes" >
   <dimension dim="1">type</dimension>
   <field type="int">atomspertype</field>
   <field type="string">element</field>
   <field>mass</field>
   <field>valence</field>
   <field type="string">pseudopotential</field>
   <set>
    <rc><c>   4</c><c>Te</c><c>    127.60000000</c><c>      6.00000000</c><c>  PAW_PBE Te 08Apr2002                  </c></rc>
    <rc><c>   2</c><c>Mo</c><c>     95.94000000</c><c>      6.00000000</c><c>  PAW_PBE Mo 08Apr2002                  </c></rc>
   </set>
  </array>
 </atominfo>
 <structure name="initialpos" >
  <crystal>
   <varray name="basis" >
    <v>       3.45200000       0.00000000       0.00000000 </v>
    <v>       0.00000000       6.36800000       0.00000000 </v>
    <v>       0.00000000       0.00000000      16.00000000 </v>
   </varray>
   <i name="volume">    351.71737600 </i>
   <varray name="rec_basis" >
    <v>       0.28968714       0.00000000       0.00000000 </v>
    <v>       0.00000000       0.15703518       0.00000000 </v>
    <v>       0.00000000       0.00000000       0.06250000 </v>
   </varray>
  </crystal>
  <varray name="positions" >
   <v>       0.50000000       0.10163317       0.12913313 </v>
   <v>       0.50000000       0.74915672       0.90758437 </v>
   <v>       0.00000000       0.25741049       0.87086563 </v>
   <v>       0.00000000       0.60988065       0.09241625 </v>
   <v>       0.50000000       0.36059673       0.99406750 </v>
   <v>       0.00000000       0.99843907       0.00593312 </v>
  </varray>
 </structure>
 <calculation>
  <scstep>
   <time name="dav">    3.14    3.14</time>
   <time name="total">    3.19    3.20</time>
   <energy>
    <i name="alphaZ">     25.19170377 </i>
    <i name="ewald">   1706.63235767 </i>
    <i name="hartreedc">  -2986.48471468 </i>
    <i name="XCdc">   -233.78894118 </i>
    <i name="pawpsdc">   1362.14282323 </i>
    <i name="pawaedc">  -1065.87210056 </i>
    <i name="eentropy">     -0.06674015 </i>
    <i name="bandstr">     50.13597966 </i>
    <i name="atom">   1328.10454569 </i>
    <i name="e_fr_energy">    185.99491344 </i>
    <i name="e_wo_entrp">    186.06165359 </i>
    <i name="e_0_energy">    186.02828352 </i>
   </energy>
  </scstep>
  <scstep>
   <time name="dav">    3.91    3.93</time>
   <time name="total">    3.96    3.98</time>
   <energy>
    <i name="e_fr_energy">    -18.23448724 </i>
    <i name="e_wo_entrp">    -18.21201717 </i>
    <i name="e_0_energy">    -18.22325221 </i>
   </energy>
  </scstep>
  <scstep>
   <time name="dav">    3.57    3.57</time>
   <time name="total">    3.62    3.62</time>
   <energy>
    <i name="e_fr_energy">    -36.74920181 </i>
    <i name="e_wo_entrp">    -36.72829323 </i>
    <i name="e_0_energy">    -36.73874752 </i>
   </energy>
  </scstep>
  <scstep>
   <time name="dav">    4.05    4.05</time>
   <time name="total">    4.10    4.11</time>
   <energy>
    <i name="e_fr_energy">    -37.41736895 </i>
    <i name="e_wo_entrp">    -37.39618027 </i>
    <i name="e_0_energy">    -37.40677461 </i>
   </energy>
  </scstep>
  <scstep>
   <time name="dav">    3.88    3.88</time>
   <time name="total">    4.04    4.04</time>
   <energy>
    <i name="e_fr_energy">    -37.42772564 </i>
    <i name="e_wo_entrp">    -37.40651463 </i>
    <i name="e_0_energy">    -37.41712014 </i>
   </energy>
  </scstep>
  <scstep>
   <time name="dav">    3.76    3.76</time>
   <time name="total">    3.95    3.95</time>
   <energy>
    <i name="e_fr_energy">    -36.49376994 </i>
    <i name="e_wo_entrp">    -36.46109340 </i>
    <i name="e_0_energy">    -36.47743167 </i>
   </energy>
  </scstep>
  <scstep>
   <time name="dav">    3.49    3.49</time>
   <time name="total">    3.68    3.68</time>
   <energy>
    <i name="e_fr_energy">    -36.53047457 </i>
    <i name="e_wo_entrp">    -36.50428593 </i>
    <i name="e_0_energy">    -36.51738025 </i>
   </energy>
  </scstep>
  <scstep>
   <time name="dav">    3.63    3.63</time>
   <time name="total">    3.82    3.83</time>
   <energy>
    <i name="e_fr_energy">    -36.01141281 </i>
    <i name="e_wo_entrp">    -35.98580750 </i>
    <i name="e_0_energy">    -35.99861015 </i>
   </energy>
  </scstep>
  <scstep>
   <time name="dav">    3.92    3.92</time>
   <time name="total">    4.11    4.12</time>
   <energy>
    <i name="e_fr_energy">    -36.00304773 </i>
    <i name="e_wo_entrp">    -35.97589721 </i>
    <i name="e_0_energy">    -35.98947247 </i>
   </energy>
  </scstep>
  <scstep>
   <time name="dav">    3.60    3.63</time>
   <time name="total">    3.80    3.83</time>
   <energy>
    <i name="e_fr_energy">    -35.99711916 </i>
    <i name="e_wo_entrp">    -35.97060811 </i>
    <i name="e_0_energy">    -35.98386363 </i>
   </energy>
  </scstep>
  <scstep>
   <time name="dav">    3.73    3.73</time>
   <time name="total">    3.93    3.93</time>
   <energy>
    <i name="e_fr_energy">    -35.99588844 </i>
    <i name="e_wo_entrp">    -35.96904549 </i>
    <i name="e_0_energy">    -35.98246697 </i>
   </energy>
  </scstep>
  <scstep>
   <time name="dav">    3.93    3.93</time>
   <time name="total">    4.13    4.13</time>
   <energy>
    <i name="e_fr_energy">    -35.99535412 </i>
    <i name="e_wo_entrp">    -35.96867982 </i>
    <i name="e_0_energy">    -35.98201697 </i>
   </energy>
  </scstep>
  <scstep>
   <time name="dav">    3.92    3.92</time>
   <time name="total">    4.11    4.11</time>
   <energy>
    <i name="e_fr_energy">    -35.99519448 </i>
    <i name="e_wo_entrp">    -35.96858440 </i>
    <i name="e_0_energy">    -35.98188944 </i>
   </energy>
  </scstep>
  <scstep>
   <time name="dav">    3.38    3.38</time>
   <time name="total">    3.57    3.58</time>
   <energy>
    <i name="e_fr_energy">    -35.99497551 </i>
    <i name="e_wo_entrp">    -35.96835051 </i>
    <i name="e_0_energy">    -35.98166301 </i>
   </energy>
  </scstep>
  <scstep>
   <time name="dav">    3.43    3.43</time>
   <time name="total">    3.63    3.63</time>
   <energy>
    <i name="e_fr_energy">    -35.99472550 </i>
    <i name="e_wo_entrp">    -35.96807008 </i>
    <i name="e_0_energy">    -35.98139779 </i>
   </energy>
  </scstep>
  <scstep>
   <time name="dav">    3.88    3.88</time>
   <time name="total">    4.09    4.10</time>
   <energy>
    <i name="e_fr_energy">    -35.99476512 </i>
    <i name="e_wo_entrp">    -35.96810637 </i>
    <i name="e_0_energy">    -35.98143574 </i>
   </energy>
  </scstep>
  <scstep>
   <time name="dav">    3.71    3.71</time>
   <time name="total">    3.91    3.91</time>
   <energy>
    <i name="e_fr_energy">    -35.99492148 </i>
    <i name="e_wo_entrp">    -35.96827635 </i>
    <i name="e_0_energy">    -35.98159891 </i>
   </energy>
  </scstep>
  <scstep>
   <time name="dav">    3.39    3.41</time>
   <time name="total">    3.59    3.61</time>
   <energy>
    <i name="e_fr_energy">    -35.99504097 </i>
    <i name="e_wo_entrp">    -35.96839413 </i>
    <i name="e_0_energy">    -35.98171755 </i>
   </energy>
  </scstep>
  <scstep>
   <time name="dav">    3.28    3.28</time>
   <time name="total">    3.48    3.48</time>
   <energy>
    <i name="e_fr_energy">    -35.99511781 </i>
    <i name="e_wo_entrp">    -35.96847194 </i>
    <i name="e_0_energy">    -35.98179488 </i>
   </energy>
  </scstep>
  <scstep>
   <time name="dav">    2.95    2.95</time>
   <time name="total">    3.15    3.15</time>
   <energy>
    <i name="e_fr_energy">    -35.99517320 </i>
    <i name="e_wo_entrp">    -35.96852632 </i>
    <i name="e_0_energy">    -35.98184976 </i>
   </energy>
  </scstep>
  <scstep>
   <time name="dav">    2.86    2.86</time>
   <time name="total">    3.05    3.05</time>
   <energy>
    <i name="e_fr_energy">    -35.99518705 </i>
    <i name="e_wo_entrp">    -35.96854094 </i>
    <i name="e_0_energy">    -35.98186399 </i>
   </energy>
  </scstep>
  <scstep>
   <time name="dav">    2.81    2.81</time>
   <time name="total">    3.01    3.01</time>
   <energy>
    <i name="e_fr_energy">    -35.99519365 </i>
    <i name="e_wo_entrp">    -35.96854726 </i>
    <i name="e_0_energy">    -35.98187046 </i>
   </energy>
  </scstep>
  <scstep>
   <time name="dav">    2.66    2.66</time>
   <time name="total">    2.86    2.86</time>
   <energy>
    <i name="e_fr_energy">    -35.99519482 </i>
    <i name="e_wo_entrp">    -35.96854760 </i>
    <i name="e_0_energy">    -35.98187121 </i>
   </energy>
  </scstep>
  <scstep>
   <time name="dav">    2.52    2.52</time>
   <time name="total">    2.61    2.61</time>
   <energy>
    <i name="alphaZ">     25.19170377 </i>
    <i name="ewald">   1706.63235767 </i>
    <i name="hartreedc">  -3004.06731248 </i>
    <i name="XCdc">   -232.33378281 </i>
    <i name="pawpsdc">   2699.57986729 </i>
    <i name="pawaedc">  -2406.02333159 </i>
    <i name="eentropy">     -0.02664721 </i>
    <i name="bandstr">   -153.05259526 </i>
    <i name="atom">   1328.10454569 </i>
    <i name="e_fr_energy">    -35.99519492 </i>
    <i name="e_wo_entrp">    -35.96854771 </i>
    <i name="e_0_energy">    -35.98187132 </i>
   </energy>
  </scstep>
  <structure>
   <crystal>
    <varray name="basis" >
     <v>       3.45200000       0.00000000       0.00000000 </v>
     <v>       0.00000000       6.36800000       0.00000000 </v>
     <v>       0.00000000       0.00000000      16.00000000 </v>
    </varray>
    <i name="volume">    351.71737600 </i>
    <varray name="rec_basis" >
     <v>       0.28968714       0.00000000       0.00000000 </v>
     <v>       0.00000000       0.15703518       0.00000000 </v>
     <v>       0.00000000       0.00000000       0.06250000 </v>
    </varray>
   </crystal>
   <varray name="positions" >
    <v>       0.50000000       0.10163317       0.12913313 </v>
    <v>       0.50000000       0.74915672       0.90758437 </v>
    <v>       0.00000000       0.25741049       0.87086563 </v>
    <v>       0.00000000       0.60988065       0.09241625 </v>
    <v>       0.50000000       0.36059673       0.99406750 </v>
    <v>       0.00000000       0.99843907       0.00593312 </v>
   </varray>
  </structure>
  <varray name="forces" >
   <v>       0.00000001      -0.00399044       0.01141957 </v>
   <v>       0.00000000       0.00033354      -0.00868221 </v>
   <v>       0.00000001       0.00369070      -0.01107791 </v>
   <v>      -0.00000002      -0.00031538       0.00873167 </v>
   <v>       0.00000001       0.02298661      -0.00011012 </v>
   <v>      -0.00000002      -0.02270505      -0.00028100 </v>
  </varray>
  <varray name="stress" >
   <v>      -1.62077641       0.00000015       0.00000179 </v>
   <v>       0.00000022      -0.40605677      -0.09064970 </v>
   <v>       0.00000185      -0.09064971      -0.64186539 </v>
  </varray>
  <energy>
   <i name="e_fr_energy">    -35.99519492 </i>
   <i name="e_wo_entrp">    -35.98187132 </i>
   <i name="e_0_energy">     -0.02664721 </i>
  </energy>
  <time name="totalsc">   89.05   89.20</time>
 </calculation>
 <calculation>
  <scstep>
   <time name="dav">    3.10    3.10</time>
   <time name="total">    3.25    3.25</time>
   <energy>
    <i name="alphaZ">     25.19170377 </i>
    <i name="ewald">   1705.83662766 </i>
    <i name="hartreedc">  -3003.30622300 </i>
    <i name="XCdc">   -232.33794924 </i>
    <i name="pawpsdc">   2699.57299449 </i>
    <i name="pawaedc">  -2406.01647670 </i>
    <i name="eentropy">     -0.02669537 </i>
    <i name="bandstr">   -153.01375684 </i>
    <i name="atom">   1328.10454569 </i>
    <i name="e_fr_energy">    -35.99522954 </i>
    <i name="e_wo_entrp">    -35.96853417 </i>
    <i name="e_0_energy">    -35.98188185 </i>
   </energy>
  </scstep>
  <scstep>
   <time name="dav">    3.59    3.59</time>
   <time name="total">    3.78    3.78</time>
   <energy>
    <i name="e_fr_energy">    -35.99523303 </i>
    <i name="e_wo_entrp">    -35.96852011 </i>
    <i name="e_0_energy">    -35.98187657 </i>
   </energy>
  </scstep>
  <scstep>
   <time name="dav">    3.40    3.42</time>
   <time name="total">    3.60    3.62</time>
   <energy>
    <i name="e_fr_energy">    -35.99523162 </i>
    <i name="e_wo_entrp">    -35.96852701 </i>
    <i name="e_0_energy">    -35.98187931 </i>
   </energy>
  </scstep>
  <scstep>
   <time name="dav">    3.11    3.11</time>
   <time name="total">    3.20    3.20</time>
   <energy>
    <i name="alphaZ">     25.19170377 </i>
    <i name="ewald">   1705.83662766 </i>
    <i name="hartreedc">  -3003.29488588 </i>
    <i name="XCdc">   -232.33746114 </i>
    <i name="pawpsdc">   2698.51829747 </i>
    <i name="pawaedc">  -2404.95912547 </i>
    <i name="eentropy">     -0.02671199 </i>
    <i name="bandstr">   -153.02822108 </i>
    <i name="atom">   1328.10454569 </i>
    <i name="e_fr_energy">    -35.99523096 </i>
    <i name="e_wo_entrp">    -35.96851897 </i>
    <i name="e_0_energy">    -35.98187496 </i>
   </energy>
  </scstep>
  <structure>
   <crystal>
    <varray name="basis" >
     <v>       3.45200000       0.00000000       0.00000000 </v>
     <v>       0.00000000       6.36800000       0.00000000 </v>
     <v>       0.00000000       0.00000000      16.00000000 </v>
    </varray>
    <i name="volume">    351.71737600 </i>
    <varray name="rec_basis" >
     <v>       0.28968714       0.00000000       0.00000000 </v>
     <v>       0.00000000       0.15703518       0.00000000 </v>
     <v>       0.00000000       0.00000000       0.06250000 </v>
    </varray>
   </crystal>
   <varray name="positions" >
    <v>       0.50000000       0.10160294       0.12916756 </v>
    <v>       0.50000000       0.74915925       0.90755820 </v>
    <v>       0.00000000       0.25743845       0.87083222 </v>
    <v>      -0.00000000       0.60987826       0.09244258 </v>
    <v>       0.50000000       0.36077088       0.99406717 </v>
    <v>      -0.00000000       0.99826706       0.00593228 </v>
   </varray>
  </structure>
  <varray name="forces" >
   <v>       0.00000032      -0.00113804      -0.00269092 </v>
   <v>       0.00000010       0.00138708      -0.00721485 </v>
   <v>      -0.00000026       0.00092719       0.00252873 </v>
   <v>      -0.00000012      -0.00122485       0.00717576 </v>
   <v>       0.00000102      -0.00024386       0.00227816 </v>
   <v>      -0.00000106       0.00029250      -0.00207689 </v>
  </varray>
  <varray name="stress" >
   <v>      -1.74302485       0.00000708       0.00000408 </v>
   <v>       0.00000696      -0.44529923      -0.03031364 </v>
   <v>       0.00000414      -0.03031373      -0.85930336 </v>
  </varray>
  <energy>
   <i name="e_fr_energy">    -35.99523096 </i>
   <i name="e_wo_entrp">    -35.98187496 </i>
   <i name="e_0_energy">     -0.02671199 </i>
  </energy>
  <time name="totalsc">   15.50   15.54</time>
 </calculation>
 <calculation>
  <scstep>
   <time name="dav">    3.13    3.13</time>
   <time name="total">    3.30    3.30</time>
   <energy>
    <i name="alphaZ">     25.19170377 </i>
    <i name="ewald">   1705.80095929 </i>
    <i name="hartreedc">  -3003.26804301 </i>
    <i name="XCdc">   -232.33780052 </i>
    <i name="pawpsdc">   2698.44455910 </i>
    <i name="pawaedc">  -2404.88493522 </i>
    <i name="eentropy">     -0.02670898 </i>
    <i name="bandstr">   -153.01951034 </i>
    <i name="atom">   1328.10454569 </i>
    <i name="e_fr_energy">    -35.99523021 </i>
    <i name="e_wo_entrp">    -35.96852123 </i>
    <i name="e_0_energy">    -35.98187572 </i>
   </energy>
  </scstep>
  <scstep>
   <time name="dav">    2.44    2.44</time>
   <time name="total">    2.53    2.53</time>
   <energy>
    <i name="alphaZ">     25.19170377 </i>
    <i name="ewald">   1705.80095929 </i>
    <i name="hartreedc">  -3003.26868796 </i>
    <i name="XCdc">   -232.33780880 </i>
    <i name="pawpsdc">   2698.43626768 </i>
    <i name="pawaedc">  -2404.87657884 </i>
    <i name="eentropy">     -0.02670907 </i>
    <i name="bandstr">   -153.01892197 </i>
    <i name="atom">   1328.10454569 </i>
    <i name="e_fr_energy">    -35.99523021 </i>
    <i name="e_wo_entrp">    -35.96852114 </i>
    <i name="e_0_energy">    -35.98187568 </i>
   </energy>
  </scstep>
  <structure>
   <crystal>
    <varray name="basis" >
     <v>       3.45200000       0.00000000       0.00000000 </v>
     <v>       0.00000000       6.36800000       0.00000000 </v>
     <v>       0.00000000       0.00000000      16.00000000 </v>
    </varray>
    <i name="volume">    351.71737600 </i>
    <varray name="rec_basis" >
     <v>       0.28968714       0.00000000       0.00000000 </v>
     <v>       0.00000000       0.15703518       0.00000000 </v>
     <v>       0.00000000       0.00000000       0.06250000 </v>
    </varray>
   </crystal>
   <varray name="positions" >
    <v>       0.50000000       0.10160158       0.12916910 </v>
    <v>       0.50000000       0.74915936       0.90755702 </v>
    <v>       0.00000000       0.25743970       0.87083073 </v>
    <v>      -0.00000000       0.60987816       0.09244376 </v>
    <v>       0.50000000       0.36077868       0.99406715 </v>
    <v>      -0.00000000       0.99825935       0.00593224 </v>
   </varray>
  </structure>
  <varray name="forces" >
   <v>       0.00000014      -0.00103663      -0.00267499 </v>
   <v>       0.00000021       0.00143284      -0.00749648 </v>
   <v>      -0.00000008       0.00083156       0.00248133 </v>
   <v>      -0.00000018      -0.00123712       0.00745714 </v>
   <v>       0.00000025      -0.00120691       0.00256365 </v>
   <v>      -0.00000034       0.00121627      -0.00233066 </v>
  </varray>
  <varray name="stress" >
   <v>      -1.75381702      -0.00000090      -0.00000026 </v>
   <v>      -0.00000089      -0.46343893      -0.02873255 </v>
   <v>      -0.00000046      -0.02873264      -0.92065561 </v>
  </varray>
  <energy>
   <i name="e_fr_energy">    -35.99523021 </i>
   <i name="e_wo_entrp">    -35.98187568 </i>
   <i name="e_0_energy">     -0.02670907 </i>
  </energy>
  <time name="totalsc">    7.41    7.42</time>
  <eigenvalues>
   <array>
    <dimension dim="1">band</dimension>
    <dimension dim="2">kpoint</dimension>
    <dimension dim="3">spin</dimension>
    <field>eigene</field>
    <field>occ</field>
    <set>
     <set comment="spin 1">
      <set comment="kpoint 1">
       <r>  -12.4625    1.0000 </r>
       <r>  -11.5619    1.0000 </r>
       <r>  -10.7546    1.0000 </r>
       <r>  -10.4949    1.0000 </r>
       <r>   -5.2408    1.0000 </r>
       <r>   -4.5673    1.0000 </r>
       <r>   -4.3084    1.0000 </r>
       <r>   -3.5531    1.0000 </r>
       <r>   -2.4297    1.0000 </r>
       <r>   -2.0158    1.0000 </r>
       <r>   -1.9584    1.0000 </r>
       <r>   -1.6505    1.0000 </r>
       <r>   -1.3182    1.0000 </r>
       <r>   -0.9540    1.0000 </r>
       <r>   -0.6755    1.0000 </r>
       <r>   -0.2169    0.9995 </r>
       <r>   -0.0005    0.9919 </r>
       <r>    0.5939    0.0546 </r>
       <r>    0.8987    0.0011 </r>
       <r>    1.5178    0.0000 </r>
       <r>    2.0358    0.0000 </r>
       <r>    2.4275    0.0000 </r>
       <r>    2.6211    0.0000 </r>
       <r>    3.5262    0.0000 </r>
      </set>
      <set comment="kpoint 2">
       <r>  -12.3934    1.0000 </r>
       <r>  -11.5150    1.0000 </r>
       <r>  -10.7188    1.0000 </r>
       <r>  -10.4490    1.0000 </r>
       <r>   -5.1686    1.0000 </r>
       <r>   -4.4886    1.0000 </r>
       <r>   -4.2790    1.0000 </r>
       <r>   -3.5215    1.0000 </r>
       <r>   -2.4690    1.0000 </r>
       <r>   -2.1744    1.0000 </r>
       <r>   -2.0521    1.0000 </r>
       <r>   -1.7090    1.0000 </r>
       <r>   -1.3168    1.0000 </r>
       <r>   -0.9132    1.0000 </r>
       <r>   -0.7086    1.0000 </r>
       <r>   -0.3876    0.9999 </r>
       <r>   -0.0058    0.9924 </r>
       <r>    0.4422    0.2897 </r>
       <r>    0.5845    0.0612 </r>
       <r>    1.6633    0.0000 </r>
       <r>    2.1420    0.0000 </r>
       <r>    2.3643    0.0000 </r>
       <r>    2.4352    0.0000 </r>
       <r>    3.1150    0.0000 </r>
      </set>
      <set comment="kpoint 3">
       <r>  -12.2569    1.0000 </r>
       <r>  -11.4235    1.0000 </r>
       <r>  -10.6507    1.0000 </r>
       <r>  -10.3617    1.0000 </r>
       <r>   -5.0299    1.0000 </r>
       <r>   -4.3528    1.0000 </r>
       <r>   -4.2148    1.0000 </r>
       <r>   -3.4716    1.0000 </r>
       <r>   -2.5484    1.0000 </r>
       <r>   -2.4583    1.0000 </r>
       <r>   -2.1210    1.0000 </r>
       <r>   -1.9392    1.0000 </r>
       <r>   -1.3472    1.0000 </r>
       <r>   -1.0272    1.0000 </r>
       <r>   -0.8035    1.0000 </r>
       <r>   -0.5218    1.0000 </r>
       <r>   -0.0142    0.9932 </r>
       <r>    0.0877    0.9752 </r>
       <r>    0.3617    0.5353 </r>
       <r>    1.6336    0.0000 </r>
       <r>    2.1991    0.0000 </r>
       <r>    2.2993    0.0000 </r>
       <r>    2.4100    0.0000 </r>
       <r>    2.5683    0.0000 </r>
      </set>
      <set comment="kpoint 4">
       <r>  -12.0567    1.0000 </r>
       <r>  -11.2917    1.0000 </r>
       <r>  -10.5573    1.0000 </r>
       <r>  -10.2438    1.0000 </r>
       <r>   -4.8388    1.0000 </r>
       <r>   -4.2641    1.0000 </r>
       <r>   -4.0455    1.0000 </r>
       <r>   -3.4298    1.0000 </r>
       <r>   -2.8489    1.0000 </r>
       <r>   -2.6228    1.0000 </r>
       <r>   -2.3069    1.0000 </r>
       <r>   -2.2062    1.0000 </r>
       <r>   -1.3932    1.0000 </r>
       <r>   -1.2277    1.0000 </r>
       <r>   -1.0792    1.0000 </r>
       <r>   -0.7056    1.0000 </r>
       <r>   -0.3306    0.9999 </r>
       <r>    0.0073    0.9911 </r>
       <r>    0.3540    0.5596 </r>
       <r>    1.4598    0.0000 </r>
       <r>    2.0994    0.0000 </r>
       <r>    2.2167    0.0000 </r>
       <r>    2.3912    0.0000 </r>
       <r>    2.4191    0.0000 </r>
      </set>
      <set comment="kpoint 5">
       <r>  -11.7994    1.0000 </r>
       <r>  -11.1272    1.0000 </r>
       <r>  -10.4504    1.0000 </r>
       <r>  -10.1139    1.0000 </r>
       <r>   -4.6232    1.0000 </r>
       <r>   -4.2643    1.0000 </r>
       <r>   -3.7792    1.0000 </r>
       <r>   -3.4761    1.0000 </r>
       <r>   -3.3109    1.0000 </r>
       <r>   -2.6613    1.0000 </r>
       <r>   -2.5180    1.0000 </r>
       <r>   -2.4264    1.0000 </r>
       <r>   -1.7039    1.0000 </r>
       <r>   -1.4167    1.0000 </r>
       <r>   -1.3495    1.0000 </r>
       <r>   -0.9818    1.0000 </r>
       <r>   -0.5422    1.0000 </r>
       <r>   -0.0443    0.9954 </r>
       <r>    0.5013    0.1600 </r>
       <r>    1.3499    0.0000 </r>
       <r>    1.8302    0.0000 </r>
       <r>    2.2414    0.0000 </r>
       <r>    2.3605    0.0000 </r>
       <r>    2.5093    0.0000 </r>
      </set>
      <set comment="kpoint 6">
       <r>  -11.4951    1.0000 </r>
       <r>  -10.9410    1.0000 </r>
       <r>  -10.3458    1.0000 </r>
       <r>  -10.0006    1.0000 </r>
       <r>   -4.4430    1.0000 </r>
       <r>   -4.3166    1.0000 </r>
       <r>   -3.9649    1.0000 </r>
       <r>   -3.4799    1.0000 </r>
       <r>   -3.3312    1.0000 </r>
       <r>   -2.8078    1.0000 </r>
       <r>   -2.6829    1.0000 </r>
       <r>   -2.5969    1.0000 </r>
       <r>   -2.2421    1.0000 </r>
       <r>   -1.5289    1.0000 </r>
       <r>   -1.4064    1.0000 </r>
       <r>   -1.2251    1.0000 </r>
       <r>   -0.6907    1.0000 </r>
       <r>   -0.1793    0.9992 </r>
       <r>    0.7397    0.0087 </r>
       <r>    1.3223    0.0000 </r>
       <r>    1.7313    0.0000 </r>
       <r>    2.2587    0.0000 </r>
       <r>    2.3468    0.0000 </r>
       <r>    2.4658    0.0000 </r>
      </set>
      <set comment="kpoint 7">
       <r>  -11.1600    1.0000 </r>
       <r>  -10.7497    1.0000 </r>
       <r>  -10.2630    1.0000 </r>
       <r>   -9.9426    1.0000 </r>
       <r>   -4.4705    1.0000 </r>
       <r>   -4.3441    1.0000 </r>
       <r>   -4.3109    1.0000 </r>
       <r>   -3.4125    1.0000 </r>
       <r>   -3.2566    1.0000 </r>
       <r>   -3.0922    1.0000 </r>
       <r>   -2.8378    1.0000 </r>
       <r>   -2.7999    1.0000 </r>
       <r>   -2.2258    1.0000 </r>
       <r>   -1.6879    1.0000 </r>
       <r>   -1.4408    1.0000 </r>
       <r>   -1.3255    1.0000 </r>
       <r>   -0.8510    1.0000 </r>
       <r>   -0.3917    0.9999 </r>
       <r>    1.0145    0.0003 </r>
       <r>    1.3708    0.0000 </r>
       <r>    1.7560    0.0000 </r>
       <r>    2.0890    0.0000 </r>
       <r>    2.2791    0.0000 </r>
       <r>    2.4872    0.0000 </r>
      </set>
      <set comment="kpoint 8">
       <r>  -10.8221    1.0000 </r>
       <r>  -10.5769    1.0000 </r>
       <r>  -10.2180    1.0000 </r>
       <r>   -9.9765    1.0000 </r>
       <r>   -4.6389    1.0000 </r>
       <r>   -4.4654    1.0000 </r>
       <r>   -4.3191    1.0000 </r>
       <r>   -3.8447    1.0000 </r>
       <r>   -3.3174    1.0000 </r>
       <r>   -3.2271    1.0000 </r>
       <r>   -2.7511    1.0000 </r>
       <r>   -2.6112    1.0000 </r>
       <r>   -2.0884    1.0000 </r>
       <r>   -1.8721    1.0000 </r>
       <r>   -1.4674    1.0000 </r>
       <r>   -1.3041    1.0000 </r>
       <r>   -1.0043    1.0000 </r>
       <r>   -0.6653    1.0000 </r>
       <r>    1.2745    0.0000 </r>
       <r>    1.4601    0.0000 </r>
       <r>    1.8115    0.0000 </r>
       <r>    1.9101    0.0000 </r>
       <r>    2.1643    0.0000 </r>
       <r>    2.4951    0.0000 </r>
      </set>
      <set comment="kpoint 9">
       <r>  -10.5416    1.0000 </r>
       <r>  -10.4663    1.0000 </r>
       <r>  -10.1987    1.0000 </r>
       <r>  -10.1012    1.0000 </r>
       <r>   -4.6436    1.0000 </r>
       <r>   -4.5349    1.0000 </r>
       <r>   -4.3415    1.0000 </r>
       <r>   -4.2146    1.0000 </r>
       <r>   -3.3805    1.0000 </r>
       <r>   -3.3480    1.0000 </r>
       <r>   -2.4598    1.0000 </r>
       <r>   -2.3352    1.0000 </r>
       <r>   -2.1766    1.0000 </r>
       <r>   -2.0844    1.0000 </r>
       <r>   -1.3350    1.0000 </r>
       <r>   -1.2525    1.0000 </r>
       <r>   -1.0985    1.0000 </r>
       <r>   -0.9619    1.0000 </r>
       <r>    1.4533    0.0000 </r>
       <r>    1.5063    0.0000 </r>
       <r>    1.8062    0.0000 </r>
       <r>    1.8103    0.0000 </r>
       <r>    2.2221    0.0000 </r>
       <r>    2.3807    0.0000 </r>
      </set>
      <set comment="kpoint 10">
       <r>  -10.5416    1.0000 </r>
       <r>  -10.4663    1.0000 </r>
       <r>  -10.1987    1.0000 </r>
       <r>  -10.1012    1.0000 </r>
       <r>   -4.6436    1.0000 </r>
       <r>   -4.5349    1.0000 </r>
       <r>   -4.3415    1.0000 </r>
       <r>   -4.2146    1.0000 </r>
       <r>   -3.3805    1.0000 </r>
       <r>   -3.3480    1.0000 </r>
       <r>   -2.4598    1.0000 </r>
       <r>   -2.3352    1.0000 </r>
       <r>   -2.1766    1.0000 </r>
       <r>   -2.0844    1.0000 </r>
       <r>   -1.3350    1.0000 </r>
       <r>   -1.2525    1.0000 </r>
       <r>   -1.0985    1.0000 </r>
       <r>   -0.9619    1.0000 </r>
       <r>    1.4533    0.0000 </r>
       <r>    1.5063    0.0000 </r>
       <r>    1.8062    0.0000 </r>
       <r>    1.8103    0.0000 </r>
       <r>    2.2221    0.0000 </r>
       <r>    2.3807    0.0000 </r>
      </set>
      <set comment="kpoint 11">
       <r>  -10.8221    1.0000 </r>
       <r>  -10.5769    1.0000 </r>
       <r>  -10.2180    1.0000 </r>
       <r>   -9.9765    1.0000 </r>
       <r>   -4.6389    1.0000 </r>
       <r>   -4.4654    1.0000 </r>
       <r>   -4.3191    1.0000 </r>
       <r>   -3.8447    1.0000 </r>
       <r>   -3.3174    1.0000 </r>
       <r>   -3.2271    1.0000 </r>
       <r>   -2.7511    1.0000 </r>
       <r>   -2.6112    1.0000 </r>
       <r>   -2.0884    1.0000 </r>
       <r>   -1.8721    1.0000 </r>
       <r>   -1.4674    1.0000 </r>
       <r>   -1.3041    1.0000 </r>
       <r>   -1.0043    1.0000 </r>
       <r>   -0.6653    1.0000 </r>
       <r>    1.2745    0.0000 </r>
       <r>    1.4601    0.0000 </r>
       <r>    1.8115    0.0000 </r>
       <r>    1.9101    0.0000 </r>
       <r>    2.1643    0.0000 </r>
       <r>    2.4951    0.0000 </r>
      </set>
      <set comment="kpoint 12">
       <r>  -11.1600    1.0000 </r>
       <r>  -10.7497    1.0000 </r>
       <r>  -10.2630    1.0000 </r>
       <r>   -9.9426    1.0000 </r>
       <r>   -4.4705    1.0000 </r>
       <r>   -4.3441    1.0000 </r>
       <r>   -4.3109    1.0000 </r>
       <r>   -3.4125    1.0000 </r>
       <r>   -3.2566    1.0000 </r>
       <r>   -3.0922    1.0000 </r>
       <r>   -2.8378    1.0000 </r>
       <r>   -2.7999    1.0000 </r>
       <r>   -2.2258    1.0000 </r>
       <r>   -1.6879    1.0000 </r>
       <r>   -1.4408    1.0000 </r>
       <r>   -1.3255    1.0000 </r>
       <r>   -0.8510    1.0000 </r>
       <r>   -0.3917    0.9999 </r>
       <r>    1.0145    0.0003 </r>
       <r>    1.3708    0.0000 </r>
       <r>    1.7560    0.0000 </r>
       <r>    2.0890    0.0000 </r>
       <r>    2.2791    0.0000 </r>
       <r>    2.4872    0.0000 </r>
      </set>
      <set comment="kpoint 13">
       <r>  -11.4951    1.0000 </r>
       <r>  -10.9410    1.0000 </r>
       <r>  -10.3458    1.0000 </r>
       <r>  -10.0006    1.0000 </r>
       <r>   -4.4430    1.0000 </r>
       <r>   -4.3166    1.0000 </r>
       <r>   -3.9649    1.0000 </r>
       <r>   -3.4799    1.0000 </r>
       <r>   -3.3312    1.0000 </r>
       <r>   -2.8078    1.0000 </r>
       <r>   -2.6829    1.0000 </r>
       <r>   -2.5969    1.0000 </r>
       <r>   -2.2421    1.0000 </r>
       <r>   -1.5289    1.0000 </r>
       <r>   -1.4064    1.0000 </r>
       <r>   -1.2251    1.0000 </r>
       <r>   -0.6907    1.0000 </r>
       <r>   -0.1793    0.9992 </r>
       <r>    0.7397    0.0087 </r>
       <r>    1.3223    0.0000 </r>
       <r>    1.7313    0.0000 </r>
       <r>    2.2587    0.0000 </r>
       <r>    2.3468    0.0000 </r>
       <r>    2.4658    0.0000 </r>
      </set>
      <set comment="kpoint 14">
       <r>  -11.7994    1.0000 </r>
       <r>  -11.1272    1.0000 </r>
       <r>  -10.4504    1.0000 </r>
       <r>  -10.1139    1.0000 </r>
       <r>   -4.6232    1.0000 </r>
       <r>   -4.2643    1.0000 </r>
       <r>   -3.7792    1.0000 </r>
       <r>   -3.4761    1.0000 </r>
       <r>   -3.3109    1.0000 </r>
       <r>   -2.6613    1.0000 </r>
       <r>   -2.5180    1.0000 </r>
       <r>   -2.4264    1.0000 </r>
       <r>   -1.7039    1.0000 </r>
       <r>   -1.4167    1.0000 </r>
       <r>   -1.3495    1.0000 </r>
       <r>   -0.9818    1.0000 </r>
       <r>   -0.5422    1.0000 </r>
       <r>   -0.0443    0.9954 </r>
       <r>    0.5013    0.1600 </r>
       <r>    1.3499    0.0000 </r>
       <r>    1.8302    0.0000 </r>
       <r>    2.2414    0.0000 </r>
       <r>    2.3605    0.0000 </r>
       <r>    2.5093    0.0000 </r>
      </set>
      <set comment="kpoint 15">
       <r>  -12.0567    1.0000 </r>
       <r>  -11.2917    1.0000 </r>
       <r>  -10.5573    1.0000 </r>
       <r>  -10.2438    1.0000 </r>
       <r>   -4.8388    1.0000 </r>
       <r>   -4.2641    1.0000 </r>
       <r>   -4.0455    1.0000 </r>
       <r>   -3.4298    1.0000 </r>
       <r>   -2.8489    1.0000 </r>
       <r>   -2.6228    1.0000 </r>
       <r>   -2.3069    1.0000 </r>
       <r>   -2.2062    1.0000 </r>
       <r>   -1.3932    1.0000 </r>
       <r>   -1.2277    1.0000 </r>
       <r>   -1.0792    1.0000 </r>
       <r>   -0.7056    1.0000 </r>
       <r>   -0.3306    0.9999 </r>
       <r>    0.0073    0.9911 </r>
       <r>    0.3540    0.5596 </r>
       <r>    1.4598    0.0000 </r>
       <r>    2.0994    0.0000 </r>
       <r>    2.2167    0.0000 </r>
       <r>    2.3912    0.0000 </r>
       <r>    2.4191    0.0000 </r>
      </set>
      <set comment="kpoint 16">
       <r>  -12.2569    1.0000 </r>
       <r>  -11.4235    1.0000 </r>
       <r>  -10.6507    1.0000 </r>
       <r>  -10.3617    1.0000 </r>
       <r>   -5.0299    1.0000 </r>
       <r>   -4.3528    1.0000 </r>
       <r>   -4.2148    1.0000 </r>
       <r>   -3.4716    1.0000 </r>
       <r>   -2.5484    1.0000 </r>
       <r>   -2.4583    1.0000 </r>
       <r>   -2.1210    1.0000 </r>
       <r>   -1.9392    1.0000 </r>
       <r>   -1.3472    1.0000 </r>
       <r>   -1.0272    1.0000 </r>
       <r>   -0.8035    1.0000 </r>
       <r>   -0.5218    1.0000 </r>
       <r>   -0.0142    0.9932 </r>
       <r>    0.0877    0.9752 </r>
       <r>    0.3617    0.5353 </r>
       <r>    1.6336    0.0000 </r>
       <r>    2.1991    0.0000 </r>
       <r>    2.2993    0.0000 </r>
       <r>    2.4100    0.0000 </r>
       <r>    2.5683    0.0000 </r>
      </set>
      <set comment="kpoint 17">
       <r>  -12.3934    1.0000 </r>
       <r>  -11.5150    1.0000 </r>
       <r>  -10.7188    1.0000 </r>
       <r>  -10.4490    1.0000 </r>
       <r>   -5.1686    1.0000 </r>
       <r>   -4.4886    1.0000 </r>
       <r>   -4.2790    1.0000 </r>
       <r>   -3.5215    1.0000 </r>
       <r>   -2.4690    1.0000 </r>
       <r>   -2.1744    1.0000 </r>
       <r>   -2.0521    1.0000 </r>
       <r>   -1.7090    1.0000 </r>
       <r>   -1.3168    1.0000 </r>
       <r>   -0.9132    1.0000 </r>
       <r>   -0.7086    1.0000 </r>
       <r>   -0.3876    0.9999 </r>
       <r>   -0.0058    0.9924 </r>
       <r>    0.4422    0.2897 </r>
       <r>    0.5845    0.0612 </r>
       <r>    1.6633    0.0000 </r>
       <r>    2.1420    0.0000 </r>
       <r>    2.3643    0.0000 </r>
       <r>    2.4352    0.0000 </r>
       <r>    3.1150    0.0000 </r>
      </set>
      <set comment="kpoint 18">
       <r>  -12.4625    1.0000 </r>
       <r>  -11.5619    1.0000 </r>
       <r>  -10.7546    1.0000 </r>
       <r>  -10.4949    1.0000 </r>
       <r>   -5.2408    1.0000 </r>
       <r>   -4.5673    1.0000 </r>
       <r>   -4.3084    1.0000 </r>
       <r>   -3.5531    1.0000 </r>
       <r>   -2.4297    1.0000 </r>
       <r>   -2.0158    1.0000 </r>
       <r>   -1.9584    1.0000 </r>
       <r>   -1.6505    1.0000 </r>
       <r>   -1.3182    1.0000 </r>
       <r>   -0.9540    1.0000 </r>
       <r>   -0.6755    1.0000 </r>
       <r>   -0.2169    0.9995 </r>
       <r>   -0.0005    0.9919 </r>
       <r>    0.5939    0.0546 </r>
       <r>    0.8987    0.0011 </r>
       <r>    1.5178    0.0000 </r>
       <r>    2.0358    0.0000 </r>
       <r>    2.4275    0.0000 </r>
       <r>    2.6211    0.0000 </r>
       <r>    3.5262    0.0000 </r>
      </set>
      <set comment="kpoint 19">
       <r>  -12.4442    1.0000 </r>
       <r>  -11.5529    1.0000 </r>
       <r>  -10.7958    1.0000 </r>
       <r>  -10.5040    1.0000 </r>
       <r>   -5.2165    1.0000 </r>
       <r>   -4.5164    1.0000 </r>
       <r>   -4.2900    1.0000 </r>
       <r>   -3.5277    1.0000 </r>
       <r>   -2.4796    1.0000 </r>
       <r>   -2.0180    1.0000 </r>
       <r>   -1.9359    1.0000 </r>
       <r>   -1.6506    1.0000 </r>
       <r>   -1.3984    1.0000 </r>
       <r>   -0.8878    1.0000 </r>
       <r>   -0.7036    1.0000 </r>
       <r>   -0.2267    0.9996 </r>
       <r>    0.0028    0.9916 </r>
       <r>    0.5330    0.1124 </r>
       <r>    0.8829    0.0014 </r>
       <r>    1.5146    0.0000 </r>
       <r>    2.0028    0.0000 </r>
       <r>    2.4147    0.0000 </r>
       <r>    2.6541    0.0000 </r>
       <r>    3.4969    0.0000 </r>
      </set>
      <set comment="kpoint 20">
       <r>  -12.3752    1.0000 </r>
       <r>  -11.5062    1.0000 </r>
       <r>  -10.7581    1.0000 </r>
       <r>  -10.4591    1.0000 </r>
       <r>   -5.1430    1.0000 </r>
       <r>   -4.4374    1.0000 </r>
       <r>   -4.2646    1.0000 </r>
       <r>   -3.4950    1.0000 </r>
       <r>   -2.5201    1.0000 </r>
       <r>   -2.1870    1.0000 </r>
       <r>   -2.0278    1.0000 </r>
       <r>   -1.7013    1.0000 </r>
       <r>   -1.3688    1.0000 </r>
       <r>   -0.8918    1.0000 </r>
       <r>   -0.7337    1.0000 </r>
       <r>   -0.3752    0.9999 </r>
       <r>   -0.0217    0.9938 </r>
       <r>    0.3465    0.5833 </r>
       <r>    0.6576    0.0248 </r>
       <r>    1.6069    0.0000 </r>
       <r>    2.0845    0.0000 </r>
       <r>    2.4047    0.0000 </r>
       <r>    2.4536    0.0000 </r>
       <r>    3.1338    0.0000 </r>
      </set>
      <set comment="kpoint 21">
       <r>  -12.2391    1.0000 </r>
       <r>  -11.4148    1.0000 </r>
       <r>  -10.6865    1.0000 </r>
       <r>  -10.3734    1.0000 </r>
       <r>   -5.0018    1.0000 </r>
       <r>   -4.3024    1.0000 </r>
       <r>   -4.2079    1.0000 </r>
       <r>   -3.4455    1.0000 </r>
       <r>   -2.5974    1.0000 </r>
       <r>   -2.4500    1.0000 </r>
       <r>   -2.1502    1.0000 </r>
       <r>   -1.8955    1.0000 </r>
       <r>   -1.3846    1.0000 </r>
       <r>   -1.0474    1.0000 </r>
       <r>   -0.8121    1.0000 </r>
       <r>   -0.5083    1.0000 </r>
       <r>   -0.0551    0.9960 </r>
       <r>    0.0378    0.9868 </r>
       <r>    0.4371    0.3034 </r>
       <r>    1.5920    0.0000 </r>
       <r>    2.0985    0.0000 </r>
       <r>    2.3619    0.0000 </r>
       <r>    2.3968    0.0000 </r>
       <r>    2.6381    0.0000 </r>
      </set>
      <set comment="kpoint 22">
       <r>  -12.0397    1.0000 </r>
       <r>  -11.2833    1.0000 </r>
       <r>  -10.5888    1.0000 </r>
       <r>  -10.2568    1.0000 </r>
       <r>   -4.8078    1.0000 </r>
       <r>   -4.2382    1.0000 </r>
       <r>   -4.0307    1.0000 </r>
       <r>   -3.4113    1.0000 </r>
       <r>   -2.8396    1.0000 </r>
       <r>   -2.6306    1.0000 </r>
       <r>   -2.3946    1.0000 </r>
       <r>   -2.1318    1.0000 </r>
       <r>   -1.4400    1.0000 </r>
       <r>   -1.2999    1.0000 </r>
       <r>   -1.0006    1.0000 </r>
       <r>   -0.7292    1.0000 </r>
       <r>   -0.3265    0.9999 </r>
       <r>   -0.0372    0.9949 </r>
       <r>    0.4026    0.4048 </r>
       <r>    1.4575    0.0000 </r>
       <r>    2.0345    0.0000 </r>
       <r>    2.1598    0.0000 </r>
       <r>    2.3997    0.0000 </r>
       <r>    2.5367    0.0000 </r>
      </set>
      <set comment="kpoint 23">
       <r>  -11.7834    1.0000 </r>
       <r>  -11.1193    1.0000 </r>
       <r>  -10.4769    1.0000 </r>
       <r>  -10.1270    1.0000 </r>
       <r>   -4.5968    1.0000 </r>
       <r>   -4.2488    1.0000 </r>
       <r>   -3.7996    1.0000 </r>
       <r>   -3.4339    1.0000 </r>
       <r>   -3.3006    1.0000 </r>
       <r>   -2.6469    1.0000 </r>
       <r>   -2.5769    1.0000 </r>
       <r>   -2.3935    1.0000 </r>
       <r>   -1.8100    1.0000 </r>
       <r>   -1.4293    1.0000 </r>
       <r>   -1.2435    1.0000 </r>
       <r>   -0.9904    1.0000 </r>
       <r>   -0.5355    1.0000 </r>
       <r>   -0.0987    0.9977 </r>
       <r>    0.5336    0.1116 </r>
       <r>    1.3630    0.0000 </r>
       <r>    1.8157    0.0000 </r>
       <r>    2.1667    0.0000 </r>
       <r>    2.3616    0.0000 </r>
       <r>    2.6223    0.0000 </r>
      </set>
      <set comment="kpoint 24">
       <r>  -11.4806    1.0000 </r>
       <r>  -10.9339    1.0000 </r>
       <r>  -10.3672    1.0000 </r>
       <r>  -10.0117    1.0000 </r>
       <r>   -4.4808    1.0000 </r>
       <r>   -4.2746    1.0000 </r>
       <r>   -3.9487    1.0000 </r>
       <r>   -3.4808    1.0000 </r>
       <r>   -3.3336    1.0000 </r>
       <r>   -2.7913    1.0000 </r>
       <r>   -2.6922    1.0000 </r>
       <r>   -2.6096    1.0000 </r>
       <r>   -2.2591    1.0000 </r>
       <r>   -1.5152    1.0000 </r>
       <r>   -1.3536    1.0000 </r>
       <r>   -1.2210    1.0000 </r>
       <r>   -0.6953    1.0000 </r>
       <r>   -0.2280    0.9996 </r>
       <r>    0.7567    0.0070 </r>
       <r>    1.3422    0.0000 </r>
       <r>    1.7262    0.0000 </r>
       <r>    2.2203    0.0000 </r>
       <r>    2.3211    0.0000 </r>
       <r>    2.5839    0.0000 </r>
      </set>
      <set comment="kpoint 25">
       <r>  -11.1480    1.0000 </r>
       <r>  -10.7436    1.0000 </r>
       <r>  -10.2792    1.0000 </r>
       <r>   -9.9492    1.0000 </r>
       <r>   -4.5990    1.0000 </r>
       <r>   -4.3305    1.0000 </r>
       <r>   -4.1885    1.0000 </r>
       <r>   -3.4964    1.0000 </r>
       <r>   -3.3085    1.0000 </r>
       <r>   -2.9924    1.0000 </r>
       <r>   -2.8261    1.0000 </r>
       <r>   -2.7961    1.0000 </r>
       <r>   -2.2010    1.0000 </r>
       <r>   -1.6719    1.0000 </r>
       <r>   -1.3953    1.0000 </r>
       <r>   -1.3245    1.0000 </r>
       <r>   -0.8649    1.0000 </r>
       <r>   -0.4219    1.0000 </r>
       <r>    1.0164    0.0002 </r>
       <r>    1.3952    0.0000 </r>
       <r>    1.7559    0.0000 </r>
       <r>    2.0890    0.0000 </r>
       <r>    2.3152    0.0000 </r>
       <r>    2.5079    0.0000 </r>
      </set>
      <set comment="kpoint 26">
       <r>  -10.8143    1.0000 </r>
       <r>  -10.5722    1.0000 </r>
       <r>  -10.2289    1.0000 </r>
       <r>   -9.9765    1.0000 </r>
       <r>   -4.7539    1.0000 </r>
       <r>   -4.4104    1.0000 </r>
       <r>   -4.3292    1.0000 </r>
       <r>   -3.8742    1.0000 </r>
       <r>   -3.3612    1.0000 </r>
       <r>   -3.1118    1.0000 </r>
       <r>   -2.7598    1.0000 </r>
       <r>   -2.5881    1.0000 </r>
       <r>   -2.0675    1.0000 </r>
       <r>   -1.8586    1.0000 </r>
       <r>   -1.4157    1.0000 </r>
       <r>   -1.3042    1.0000 </r>
       <r>   -1.0266    1.0000 </r>
       <r>   -0.6693    1.0000 </r>
       <r>    1.2652    0.0000 </r>
       <r>    1.4838    0.0000 </r>
       <r>    1.8208    0.0000 </r>
       <r>    1.9300    0.0000 </r>
       <r>    2.2007    0.0000 </r>
       <r>    2.4903    0.0000 </r>
      </set>
      <set comment="kpoint 27">
       <r>  -10.5412    1.0000 </r>
       <r>  -10.4647    1.0000 </r>
       <r>  -10.2006    1.0000 </r>
       <r>  -10.0955    1.0000 </r>
       <r>   -4.7457    1.0000 </r>
       <r>   -4.5740    1.0000 </r>
       <r>   -4.3518    1.0000 </r>
       <r>   -4.1950    1.0000 </r>
       <r>   -3.3555    1.0000 </r>
       <r>   -3.2689    1.0000 </r>
       <r>   -2.4676    1.0000 </r>
       <r>   -2.3239    1.0000 </r>
       <r>   -2.1560    1.0000 </r>
       <r>   -2.0675    1.0000 </r>
       <r>   -1.3046    1.0000 </r>
       <r>   -1.2380    1.0000 </r>
       <r>   -1.1194    1.0000 </r>
       <r>   -0.9433    1.0000 </r>
       <r>    1.4466    0.0000 </r>
       <r>    1.5173    0.0000 </r>
       <r>    1.8304    0.0000 </r>
       <r>    1.8394    0.0000 </r>
       <r>    2.2341    0.0000 </r>
       <r>    2.3805    0.0000 </r>
      </set>
      <set comment="kpoint 28">
       <r>  -10.5412    1.0000 </r>
       <r>  -10.4647    1.0000 </r>
       <r>  -10.2006    1.0000 </r>
       <r>  -10.0955    1.0000 </r>
       <r>   -4.7457    1.0000 </r>
       <r>   -4.5740    1.0000 </r>
       <r>   -4.3518    1.0000 </r>
       <r>   -4.1950    1.0000 </r>
       <r>   -3.3555    1.0000 </r>
       <r>   -3.2689    1.0000 </r>
       <r>   -2.4676    1.0000 </r>
       <r>   -2.3239    1.0000 </r>
       <r>   -2.1560    1.0000 </r>
       <r>   -2.0675    1.0000 </r>
       <r>   -1.3046    1.0000 </r>
       <r>   -1.2380    1.0000 </r>
       <r>   -1.1194    1.0000 </r>
       <r>   -0.9433    1.0000 </r>
       <r>    1.4466    0.0000 </r>
       <r>    1.5173    0.0000 </r>
       <r>    1.8304    0.0000 </r>
       <r>    1.8394    0.0000 </r>
       <r>    2.2341    0.0000 </r>
       <r>    2.3805    0.0000 </r>
      </set>
      <set comment="kpoint 29">
       <r>  -10.8143    1.0000 </r>
       <r>  -10.5722    1.0000 </r>
       <r>  -10.2289    1.0000 </r>
       <r>   -9.9765    1.0000 </r>
       <r>   -4.7539    1.0000 </r>
       <r>   -4.4104    1.0000 </r>
       <r>   -4.3292    1.0000 </r>
       <r>   -3.8742    1.0000 </r>
       <r>   -3.3612    1.0000 </r>
       <r>   -3.1118    1.0000 </r>
       <r>   -2.7598    1.0000 </r>
       <r>   -2.5881    1.0000 </r>
       <r>   -2.0675    1.0000 </r>
       <r>   -1.8586    1.0000 </r>
       <r>   -1.4157    1.0000 </r>
       <r>   -1.3042    1.0000 </r>
       <r>   -1.0266    1.0000 </r>
       <r>   -0.6693    1.0000 </r>
       <r>    1.2652    0.0000 </r>
       <r>    1.4838    0.0000 </r>
       <r>    1.8208    0.0000 </r>
       <r>    1.9300    0.0000 </r>
       <r>    2.2007    0.0000 </r>
       <r>    2.4903    0.0000 </r>
      </set>
      <set comment="kpoint 30">
       <r>  -11.1480    1.0000 </r>
       <r>  -10.7436    1.0000 </r>
       <r>  -10.2792    1.0000 </r>
       <r>   -9.9492    1.0000 </r>
       <r>   -4.5990    1.0000 </r>
       <r>   -4.3305    1.0000 </r>
       <r>   -4.1885    1.0000 </r>
       <r>   -3.4964    1.0000 </r>
       <r>   -3.3085    1.0000 </r>
       <r>   -2.9924    1.0000 </r>
       <r>   -2.8261    1.0000 </r>
       <r>   -2.7961    1.0000 </r>
       <r>   -2.2010    1.0000 </r>
       <r>   -1.6719    1.0000 </r>
       <r>   -1.3953    1.0000 </r>
       <r>   -1.3245    1.0000 </r>
       <r>   -0.8649    1.0000 </r>
       <r>   -0.4219    1.0000 </r>
       <r>    1.0164    0.0002 </r>
       <r>    1.3952    0.0000 </r>
       <r>    1.7559    0.0000 </r>
       <r>    2.0890    0.0000 </r>
       <r>    2.3152    0.0000 </r>
       <r>    2.5079    0.0000 </r>
      </set>
      <set comment="kpoint 31">
       <r>  -11.4806    1.0000 </r>
       <r>  -10.9339    1.0000 </r>
       <r>  -10.3672    1.0000 </r>
       <r>  -10.0117    1.0000 </r>
       <r>   -4.4808    1.0000 </r>
       <r>   -4.2746    1.0000 </r>
       <r>   -3.9487    1.0000 </r>
       <r>   -3.4808    1.0000 </r>
       <r>   -3.3336    1.0000 </r>
       <r>   -2.7913    1.0000 </r>
       <r>   -2.6922    1.0000 </r>
       <r>   -2.6096    1.0000 </r>
       <r>   -2.2591    1.0000 </r>
       <r>   -1.5152    1.0000 </r>
       <r>   -1.3536    1.0000 </r>
       <r>   -1.2210    1.0000 </r>
       <r>   -0.6953    1.0000 </r>
       <r>   -0.2280    0.9996 </r>
       <r>    0.7567    0.0070 </r>
       <r>    1.3422    0.0000 </r>
       <r>    1.7262    0.0000 </r>
       <r>    2.2203    0.0000 </r>
       <r>    2.3211    0.0000 </r>
       <r>    2.5839    0.0000 </r>
      </set>
      <set comment="kpoint 32">
       <r>  -11.7834    1.0000 </r>
       <r>  -11.1193    1.0000 </r>
       <r>  -10.4769    1.0000 </r>
       <r>  -10.1270    1.0000 </r>
       <r>   -4.5968    1.0000 </r>
       <r>   -4.2488    1.0000 </r>
       <r>   -3.7996    1.0000 </r>
       <r>   -3.4339    1.0000 </r>
       <r>   -3.3006    1.0000 </r>
       <r>   -2.6469    1.0000 </r>
       <r>   -2.5769    1.0000 </r>
       <r>   -2.3935    1.0000 </r>
       <r>   -1.8100    1.0000 </r>
       <r>   -1.4293    1.0000 </r>
       <r>   -1.2435    1.0000 </r>
       <r>   -0.9904    1.0000 </r>
       <r>   -0.5355    1.0000 </r>
       <r>   -0.0987    0.9977 </r>
       <r>    0.5336    0.1116 </r>
       <r>    1.3630    0.0000 </r>
       <r>    1.8157    0.0000 </r>
       <r>    2.1667    0.0000 </r>
       <r>    2.3616    0.0000 </r>
       <r>    2.6223    0.0000 </r>
      </set>
      <set comment="kpoint 33">
       <r>  -12.0397    1.0000 </r>
       <r>  -11.2833    1.0000 </r>
       <r>  -10.5888    1.0000 </r>
       <r>  -10.2568    1.0000 </r>
       <r>   -4.8078    1.0000 </r>
       <r>   -4.2382    1.0000 </r>
       <r>   -4.0307    1.0000 </r>
       <r>   -3.4113    1.0000 </r>
       <r>   -2.8396    1.0000 </r>
       <r>   -2.6306    1.0000 </r>
       <r>   -2.3946    1.0000 </r>
       <r>   -2.1318    1.0000 </r>
       <r>   -1.4400    1.0000 </r>
       <r>   -1.2999    1.0000 </r>
       <r>   -1.0006    1.0000 </r>
       <r>   -0.7292    1.0000 </r>
       <r>   -0.3265    0.9999 </r>
       <r>   -0.0372    0.9949 </r>
       <r>    0.4026    0.4048 </r>
       <r>    1.4575    0.0000 </r>
       <r>    2.0345    0.0000 </r>
       <r>    2.1598    0.0000 </r>
       <r>    2.3997    0.0000 </r>
       <r>    2.5367    0.0000 </r>
      </set>
      <set comment="kpoint 34">
       <r>  -12.2391    1.0000 </r>
       <r>  -11.4148    1.0000 </r>
       <r>  -10.6865    1.0000 </r>
       <r>  -10.3734    1.0000 </r>
       <r>   -5.0018    1.0000 </r>
       <r>   -4.3024    1.0000 </r>
       <r>   -4.2079    1.0000 </r>
       <r>   -3.4455    1.0000 </r>
       <r>   -2.5974    1.0000 </r>
       <r>   -2.4500    1.0000 </r>
       <r>   -2.1502    1.0000 </r>
       <r>   -1.8955    1.0000 </r>
       <r>   -1.3846    1.0000 </r>
       <r>   -1.0474    1.0000 </r>
       <r>   -0.8121    1.0000 </r>
       <r>   -0.5083    1.0000 </r>
       <r>   -0.0551    0.9960 </r>
       <r>    0.0378    0.9868 </r>
       <r>    0.4371    0.3034 </r>
       <r>    1.5920    0.0000 </r>
       <r>    2.0985    0.0000 </r>
       <r>    2.3619    0.0000 </r>
       <r>    2.3968    0.0000 </r>
       <r>    2.6381    0.0000 </r>
      </set>
      <set comment="kpoint 35">
       <r>  -12.3752    1.0000 </r>
       <r>  -11.5062    1.0000 </r>
       <r>  -10.7581    1.0000 </r>
       <r>  -10.4591    1.0000 </r>
       <r>   -5.1430    1.0000 </r>
       <r>   -4.4374    1.0000 </r>
       <r>   -4.2646    1.0000 </r>
       <r>   -3.4950    1.0000 </r>
       <r>   -2.5201    1.0000 </r>
       <r>   -2.1870    1.0000 </r>
       <r>   -2.0278    1.0000 </r>
       <r>   -1.7013    1.0000 </r>
       <r>   -1.3688    1.0000 </r>
       <r>   -0.8918    1.0000 </r>
       <r>   -0.7337    1.0000 </r>
       <r>   -0.3752    0.9999 </r>
       <r>   -0.0217    0.9938 </r>
       <r>    0.3465    0.5833 </r>
       <r>    0.6576    0.0248 </r>
       <r>    1.6069    0.0000 </r>
       <r>    2.0845    0.0000 </r>
       <r>    2.4047    0.0000 </r>
       <r>    2.4536    0.0000 </r>
       <r>    3.1338    0.0000 </r>
      </set>
      <set comment="kpoint 36">
       <r>  -12.4442    1.0000 </r>
       <r>  -11.5529    1.0000 </r>
       <r>  -10.7958    1.0000 </r>
       <r>  -10.5040    1.0000 </r>
       <r>   -5.2165    1.0000 </r>
       <r>   -4.5164    1.0000 </r>
       <r>   -4.2900    1.0000 </r>
       <r>   -3.5277    1.0000 </r>
       <r>   -2.4796    1.0000 </r>
       <r>   -2.0180    1.0000 </r>
       <r>   -1.9359    1.0000 </r>
       <r>   -1.6506    1.0000 </r>
       <r>   -1.3984    1.0000 </r>
       <r>   -0.8878    1.0000 </r>
       <r>   -0.7036    1.0000 </r>
       <r>   -0.2267    0.9996 </r>
       <r>    0.0028    0.9916 </r>
       <r>    0.5330    0.1124 </r>
       <r>    0.8829    0.0014 </r>
       <r>    1.5146    0.0000 </r>
       <r>    2.0028    0.0000 </r>
       <r>    2.4147    0.0000 </r>
       <r>    2.6541    0.0000 </r>
       <r>    3.4969    0.0000 </r>
      </set>
      <set comment="kpoint 37">
       <r>  -12.4077    1.0000 </r>
       <r>  -11.5357    1.0000 </r>
       <r>  -10.8713    1.0000 </r>
       <r>  -10.5247    1.0000 </r>
       <r>   -5.1681    1.0000 </r>
       <r>   -4.4343    1.0000 </r>
[...]
       <r>    2.6730    0.0000 </r>
      </set>
      <set comment="kpoint 159">
       <r>  -11.5125    1.0000 </r>
       <r>  -11.3539    1.0000 </r>
       <r>  -11.0667    1.0000 </r>
       <r>  -10.5138    1.0000 </r>
       <r>   -4.0407    1.0000 </r>
       <r>   -3.9636    1.0000 </r>
       <r>   -3.6973    1.0000 </r>
       <r>   -3.3836    1.0000 </r>
       <r>   -3.1780    1.0000 </r>
       <r>   -2.7420    1.0000 </r>
       <r>   -2.4432    1.0000 </r>
       <r>   -2.1846    1.0000 </r>
       <r>   -1.3955    1.0000 </r>
       <r>   -1.3043    1.0000 </r>
       <r>   -1.0588    1.0000 </r>
       <r>   -0.9488    1.0000 </r>
       <r>   -0.6736    1.0000 </r>
       <r>   -0.2256    0.9996 </r>
       <r>    0.7200    0.0112 </r>
       <r>    0.9826    0.0004 </r>
       <r>    1.8496    0.0000 </r>
       <r>    1.9153    0.0000 </r>
       <r>    2.4380    0.0000 </r>
       <r>    2.6984    0.0000 </r>
      </set>
      <set comment="kpoint 160">
       <r>  -11.6929    1.0000 </r>
       <r>  -11.5153    1.0000 </r>
       <r>  -11.1782    1.0000 </r>
       <r>  -10.6346    1.0000 </r>
       <r>   -4.2549    1.0000 </r>
       <r>   -4.0722    1.0000 </r>
       <r>   -3.8690    1.0000 </r>
       <r>   -3.0478    1.0000 </r>
       <r>   -2.8510    1.0000 </r>
       <r>   -2.6634    1.0000 </r>
       <r>   -2.2990    1.0000 </r>
       <r>   -1.7594    1.0000 </r>
       <r>   -1.3525    1.0000 </r>
       <r>   -1.1907    1.0000 </r>
       <r>   -0.9826    1.0000 </r>
       <r>   -0.9115    1.0000 </r>
       <r>   -0.5366    1.0000 </r>
       <r>   -0.2146    0.9995 </r>
       <r>    0.8042    0.0038 </r>
       <r>    0.8703    0.0016 </r>
       <r>    1.8264    0.0000 </r>
       <r>    1.9953    0.0000 </r>
       <r>    2.6646    0.0000 </r>
       <r>    2.8776    0.0000 </r>
      </set>
      <set comment="kpoint 161">
       <r>  -11.8171    1.0000 </r>
       <r>  -11.6284    1.0000 </r>
       <r>  -11.2567    1.0000 </r>
       <r>  -10.7204    1.0000 </r>
       <r>   -4.4160    1.0000 </r>
       <r>   -4.1713    1.0000 </r>
       <r>   -3.9863    1.0000 </r>
       <r>   -2.9581    1.0000 </r>
       <r>   -2.7401    1.0000 </r>
       <r>   -2.3197    1.0000 </r>
       <r>   -2.1016    1.0000 </r>
       <r>   -1.5463    1.0000 </r>
       <r>   -1.4768    1.0000 </r>
       <r>   -1.1326    1.0000 </r>
       <r>   -0.9429    1.0000 </r>
       <r>   -0.6956    1.0000 </r>
       <r>   -0.4116    1.0000 </r>
       <r>   -0.2896    0.9998 </r>
       <r>    0.6362    0.0324 </r>
       <r>    1.1572    0.0000 </r>
       <r>    1.7933    0.0000 </r>
       <r>    2.1014    0.0000 </r>
       <r>    2.9474    0.0000 </r>
       <r>    3.1899    0.0000 </r>
      </set>
      <set comment="kpoint 162">
       <r>  -11.8803    1.0000 </r>
       <r>  -11.6865    1.0000 </r>
       <r>  -11.2971    1.0000 </r>
       <r>  -10.7648    1.0000 </r>
       <r>   -4.5004    1.0000 </r>
       <r>   -4.2280    1.0000 </r>
       <r>   -4.0455    1.0000 </r>
       <r>   -3.0062    1.0000 </r>
       <r>   -2.6090    1.0000 </r>
       <r>   -1.9906    1.0000 </r>
       <r>   -1.9250    1.0000 </r>
       <r>   -1.6851    1.0000 </r>
       <r>   -1.6016    1.0000 </r>
       <r>   -1.0381    1.0000 </r>
       <r>   -0.9721    1.0000 </r>
       <r>   -0.5083    1.0000 </r>
       <r>   -0.3896    0.9999 </r>
       <r>   -0.2427    0.9996 </r>
       <r>    0.4484    0.2736 </r>
       <r>    1.4864    0.0000 </r>
       <r>    1.7633    0.0000 </r>
       <r>    2.1437    0.0000 </r>
       <r>    3.1604    0.0000 </r>
       <r>    3.1963    0.0000 </r>
      </set>
     </set>
    </set>
   </array>
  </eigenvalues>
  <separator name="orbital magnetization" >
   <v name="MAGDIPOLOUT">      0.00000000      0.00000000      0.00000000</v>
  </separator>
  <dos>
   <i name="efermi">      0.37263573 </i>
   <total>
    <array>
     <dimension dim="1">gridpoints</dimension>
     <dimension dim="2">spin</dimension>
     <field>energy</field>
     <field>total</field>
     <field>integrated</field>
     <set>
      <set comment="spin 1">
       <r>   -13.2619     0.0000     0.0000 </r>
       <r>   -13.2033     0.0000     0.0000 </r>
       <r>   -13.1447     0.0000     0.0000 </r>
       <r>   -13.0861     0.0003     0.0000 </r>
       <r>   -13.0274     0.0006     0.0001 </r>
       <r>   -12.9688     0.0012     0.0001 </r>
       <r>   -12.9102     0.0028     0.0003 </r>
       <r>   -12.8516     0.0059     0.0006 </r>
       <r>   -12.7929     0.0124     0.0014 </r>
       <r>   -12.7343     0.0261     0.0029 </r>
       <r>   -12.6757     0.0541     0.0061 </r>
       <r>   -12.6171     0.1088     0.0124 </r>
       <r>   -12.5584     0.2080     0.0246 </r>
       <r>   -12.4998     0.3637     0.0460 </r>
       <r>   -12.4412     0.5639     0.0790 </r>
       <r>   -12.3826     0.7633     0.1238 </r>
       <r>   -12.3239     0.9202     0.1777 </r>
       <r>   -12.2653     1.0258     0.2379 </r>
       <r>   -12.2067     1.0902     0.3018 </r>
       <r>   -12.1481     1.1286     0.3679 </r>
       <r>   -12.0894     1.1615     0.4360 </r>
       <r>   -12.0308     1.1962     0.5061 </r>
       <r>   -11.9722     1.2187     0.5776 </r>
       <r>   -11.9136     1.2304     0.6497 </r>
       <r>   -11.8549     1.2537     0.7232 </r>
       <r>   -11.7963     1.3090     0.8000 </r>
       <r>   -11.7377     1.4038     0.8823 </r>
       <r>   -11.6791     1.5611     0.9739 </r>
       <r>   -11.6204     1.8228     1.0808 </r>
       <r>   -11.5618     2.2032     1.2100 </r>
       <r>   -11.5032     2.6214     1.3637 </r>
       <r>   -11.4446     2.9362     1.5358 </r>
       <r>   -11.3859     3.0899     1.7170 </r>
       <r>   -11.3273     3.1533     1.9019 </r>
       <r>   -11.2687     3.2074     2.0900 </r>
       <r>   -11.2101     3.2643     2.2814 </r>
       <r>   -11.1514     3.3088     2.4754 </r>
       <r>   -11.0928     3.3318     2.6708 </r>
       <r>   -11.0342     3.3378     2.8665 </r>
       <r>   -10.9756     3.3772     3.0645 </r>
       <r>   -10.9169     3.5290     3.2715 </r>
       <r>   -10.8583     3.8256     3.4959 </r>
       <r>   -10.7997     4.2457     3.7449 </r>
       <r>   -10.7411     4.7264     4.0220 </r>
       <r>   -10.6824     5.1978     4.3268 </r>
       <r>   -10.6238     5.6396     4.6576 </r>
       <r>   -10.5652     6.0243     5.0108 </r>
       <r>   -10.5066     6.1979     5.3743 </r>
       <r>   -10.4479     5.9830     5.7251 </r>
       <r>   -10.3893     5.4430     6.0443 </r>
       <r>   -10.3307     4.8478     6.3286 </r>
       <r>   -10.2721     4.4028     6.5868 </r>
       <r>   -10.2134     4.1369     6.8294 </r>
       <r>   -10.1548     3.9591     7.0617 </r>
       <r>   -10.0962     3.7825     7.2836 </r>
       <r>   -10.0376     3.5216     7.4902 </r>
       <r>    -9.9789     3.0449     7.6689 </r>
       <r>    -9.9203     2.3222     7.8052 </r>
       <r>    -9.8617     1.5274     7.8950 </r>
       <r>    -9.8031     0.8808     7.9468 </r>
       <r>    -9.7444     0.4626     7.9741 </r>
       <r>    -9.6858     0.2294     7.9876 </r>
       <r>    -9.6272     0.1101     7.9942 </r>
       <r>    -9.5686     0.0510     7.9973 </r>
       <r>    -9.5099     0.0234     7.9988 </r>
       <r>    -9.4513     0.0100     7.9995 </r>
       <r>    -9.3927     0.0036     7.9998 </r>
       <r>    -9.3341     0.0004     8.0000 </r>
       <r>    -9.2754     0.0000     8.0000 </r>
       <r>    -9.2168     0.0000     8.0000 </r>
       <r>    -9.1582     0.0000     8.0000 </r>
       <r>    -9.0996     0.0000     8.0000 </r>
       <r>    -9.0409     0.0000     8.0000 </r>
       <r>    -8.9823     0.0000     8.0000 </r>
       <r>    -8.9237     0.0000     8.0000 </r>
       <r>    -8.8651     0.0000     8.0000 </r>
       <r>    -8.8064     0.0000     8.0000 </r>
       <r>    -8.7478     0.0000     8.0000 </r>
       <r>    -8.6892     0.0000     8.0000 </r>
       <r>    -8.6306     0.0000     8.0000 </r>
       <r>    -8.5719     0.0000     8.0000 </r>
       <r>    -8.5133     0.0000     8.0000 </r>
       <r>    -8.4547     0.0000     8.0000 </r>
       <r>    -8.3961     0.0000     8.0000 </r>
       <r>    -8.3374     0.0000     8.0000 </r>
       <r>    -8.2788     0.0000     8.0000 </r>
       <r>    -8.2202     0.0000     8.0000 </r>
       <r>    -8.1616     0.0000     8.0000 </r>
       <r>    -8.1029     0.0000     8.0000 </r>
       <r>    -8.0443     0.0000     8.0000 </r>
       <r>    -7.9857     0.0000     8.0000 </r>
       <r>    -7.9271     0.0000     8.0000 </r>
       <r>    -7.8684     0.0000     8.0000 </r>
       <r>    -7.8098     0.0000     8.0000 </r>
       <r>    -7.7512     0.0000     8.0000 </r>
       <r>    -7.6926     0.0000     8.0000 </r>
       <r>    -7.6339     0.0000     8.0000 </r>
       <r>    -7.5753     0.0000     8.0000 </r>
       <r>    -7.5167     0.0000     8.0000 </r>
       <r>    -7.4581     0.0000     8.0000 </r>
       <r>    -7.3994     0.0000     8.0000 </r>
       <r>    -7.3408     0.0000     8.0000 </r>
       <r>    -7.2822     0.0000     8.0000 </r>
       <r>    -7.2236     0.0000     8.0000 </r>
       <r>    -7.1649     0.0000     8.0000 </r>
       <r>    -7.1063     0.0000     8.0000 </r>
       <r>    -7.0477     0.0000     8.0000 </r>
       <r>    -6.9891     0.0000     8.0000 </r>
       <r>    -6.9304     0.0000     8.0000 </r>
       <r>    -6.8718     0.0000     8.0000 </r>
       <r>    -6.8132     0.0000     8.0000 </r>
       <r>    -6.7546     0.0000     8.0000 </r>
       <r>    -6.6959     0.0000     8.0000 </r>
       <r>    -6.6373     0.0000     8.0000 </r>
       <r>    -6.5787     0.0000     8.0000 </r>
       <r>    -6.5201     0.0000     8.0000 </r>
       <r>    -6.4614     0.0000     8.0000 </r>
       <r>    -6.4028     0.0000     8.0000 </r>
       <r>    -6.3442     0.0000     8.0000 </r>
       <r>    -6.2856     0.0000     8.0000 </r>
       <r>    -6.2269     0.0000     8.0000 </r>
       <r>    -6.1683     0.0000     8.0000 </r>
       <r>    -6.1097     0.0000     8.0000 </r>
       <r>    -6.0511     0.0001     8.0000 </r>
       <r>    -5.9924     0.0002     8.0000 </r>
       <r>    -5.9338     0.0005     8.0000 </r>
       <r>    -5.8752     0.0017     8.0001 </r>
       <r>    -5.8166     0.0032     8.0003 </r>
       <r>    -5.7579     0.0067     8.0007 </r>
       <r>    -5.6993     0.0141     8.0016 </r>
       <r>    -5.6407     0.0300     8.0033 </r>
       <r>    -5.5821     0.0623     8.0070 </r>
       <r>    -5.5234     0.1256     8.0143 </r>
       <r>    -5.4648     0.2412     8.0285 </r>
       <r>    -5.4062     0.4300     8.0537 </r>
       <r>    -5.3476     0.6971     8.0945 </r>
       <r>    -5.2889     1.0208     8.1544 </r>
       <r>    -5.2303     1.3442     8.2332 </r>
       <r>    -5.1717     1.5952     8.3267 </r>
       <r>    -5.1131     1.7532     8.4295 </r>
       <r>    -5.0544     1.8735     8.5393 </r>
       <r>    -4.9958     2.0184     8.6577 </r>
       <r>    -4.9372     2.1902     8.7861 </r>
       <r>    -4.8786     2.3352     8.9230 </r>
       <r>    -4.8199     2.4113     9.0643 </r>
       <r>    -4.7613     2.4563     9.2083 </r>
       <r>    -4.7027     2.5671     9.3588 </r>
       <r>    -4.6440     2.8369     9.5252 </r>
       <r>    -4.5854     3.3164     9.7197 </r>
       <r>    -4.5268     3.9957     9.9540 </r>
       <r>    -4.4682     4.8120    10.2362 </r>
       <r>    -4.4095     5.6634    10.5682 </r>
       <r>    -4.3509     6.4000    10.9435 </r>
       <r>    -4.2923     6.8679    11.3462 </r>
       <r>    -4.2337     6.9718    11.7550 </r>
       <r>    -4.1750     6.7047    12.1481 </r>
       <r>    -4.1164     6.1947    12.5114 </r>
       <r>    -4.0578     5.6373    12.8419 </r>
       <r>    -3.9992     5.1330    13.1429 </r>
       <r>    -3.9405     4.6883    13.4178 </r>
       <r>    -3.8819     4.3093    13.6706 </r>
       <r>    -3.8233     4.0192    13.9063 </r>
       <r>    -3.7647     3.8190    14.1304 </r>
       <r>    -3.7060     3.6792    14.3464 </r>
       <r>    -3.6474     3.6210    14.5589 </r>
       <r>    -3.5888     3.7547    14.7793 </r>
       <r>    -3.5302     4.1487    15.0227 </r>
       <r>    -3.4715     4.7067    15.2987 </r>
       <r>    -3.4129     5.1966    15.6036 </r>
       <r>    -3.3543     5.3890    15.9196 </r>
       <r>    -3.2957     5.2007    16.2246 </r>
       <r>    -3.2370     4.7797    16.5050 </r>
       <r>    -3.1784     4.3963    16.7628 </r>
       <r>    -3.1198     4.2533    17.0123 </r>
       <r>    -3.0612     4.4105    17.2710 </r>
       <r>    -3.0025     4.7727    17.5508 </r>
       <r>    -2.9439     5.1331    17.8519 </r>
       <r>    -2.8853     5.3924    18.1681 </r>
       <r>    -2.8267     5.6443    18.4992 </r>
       <r>    -2.7680     5.9812    18.8500 </r>
       <r>    -2.7094     6.3540    19.2227 </r>
       <r>    -2.6508     6.6456    19.6125 </r>
       <r>    -2.5922     6.7536    20.0085 </r>
       <r>    -2.5335     6.6895    20.4008 </r>
       <r>    -2.4749     6.5215    20.7832 </r>
       <r>    -2.4163     6.2225    21.1481 </r>
       <r>    -2.3577     5.7932    21.4879 </r>
       <r>    -2.2990     5.4114    21.8054 </r>
       <r>    -2.2404     5.2192    22.1114 </r>
       <r>    -2.1818     5.1797    22.4152 </r>
       <r>    -2.1232     5.1909    22.7197 </r>
       <r>    -2.0645     5.2256    23.0263 </r>
       <r>    -2.0059     5.2968    23.3370 </r>
       <r>    -1.9473     5.3988    23.6538 </r>
       <r>    -1.8887     5.5404    23.9787 </r>
       <r>    -1.8300     5.7519    24.3162 </r>
       <r>    -1.7714     6.0238    24.6695 </r>
       <r>    -1.7128     6.2749    25.0375 </r>
       <r>    -1.6542     6.4300    25.4146 </r>
       <r>    -1.5955     6.5040    25.7960 </r>
       <r>    -1.5369     6.6501    26.1860 </r>
       <r>    -1.4783     7.0491    26.5994 </r>
       <r>    -1.4197     7.6378    27.0473 </r>
       <r>    -1.3610     8.0269    27.5181 </r>
       <r>    -1.3024     7.8652    27.9794 </r>
       <r>    -1.2438     7.2436    28.4042 </r>
       <r>    -1.1852     6.6120    28.7919 </r>
       <r>    -1.1265     6.3679    29.1655 </r>
       <r>    -1.0679     6.6041    29.5529 </r>
       <r>    -1.0093     7.1160    29.9703 </r>
       <r>    -0.9507     7.5949    30.4157 </r>
       <r>    -0.8920     7.7812    30.8720 </r>
       <r>    -0.8334     7.6106    31.3183 </r>
       <r>    -0.7748     7.2430    31.7433 </r>
       <r>    -0.7162     6.8442    32.1449 </r>
       <r>    -0.6575     6.4365    32.5225 </r>
       <r>    -0.5989     6.0383    32.8767 </r>
       <r>    -0.5403     5.6943    33.2106 </r>
       <r>    -0.4817     5.3678    33.5254 </r>
       <r>    -0.4230     5.0490    33.8216 </r>
       <r>    -0.3644     4.7850    34.1023 </r>
       <r>    -0.3058     4.5482    34.3693 </r>
       <r>    -0.2472     4.3054    34.6220 </r>
       <r>    -0.1885     4.0507    34.8597 </r>
       <r>    -0.1299     3.7469    35.0795 </r>
       <r>    -0.0713     3.3684    35.2772 </r>
       <r>    -0.0127     2.8986    35.4473 </r>
       <r>     0.0460     2.3352    35.5843 </r>
       <r>     0.1046     1.7554    35.6875 </r>
       <r>     0.1632     1.2916    35.7633 </r>
       <r>     0.2218     1.0195    35.8232 </r>
       <r>     0.2805     0.9454    35.8788 </r>
       <r>     0.3391     1.0400    35.9399 </r>
       <r>     0.3977     1.2505    36.0133 </r>
       <r>     0.4563     1.5227    36.1027 </r>
       <r>     0.5150     1.8285    36.2100 </r>
       <r>     0.5736     2.1631    36.3369 </r>
       <r>     0.6322     2.5226    36.4849 </r>
       <r>     0.6908     2.8450    36.6518 </r>
       <r>     0.7495     3.0000    36.8276 </r>
       <r>     0.8081     2.9064    36.9980 </r>
       <r>     0.8667     2.6532    37.1536 </r>
       <r>     0.9253     2.4052    37.2946 </r>
       <r>     0.9840     2.2738    37.4280 </r>
       <r>     1.0426     2.2880    37.5621 </r>
       <r>     1.1012     2.4265    37.7044 </r>
       <r>     1.1598     2.6939    37.8624 </r>
       <r>     1.2185     3.1313    38.0461 </r>
       <r>     1.2771     3.7157    38.2640 </r>
       <r>     1.3357     4.3541    38.5193 </r>
       <r>     1.3943     4.9313    38.8086 </r>
       <r>     1.4530     5.2724    39.1177 </r>
       <r>     1.5116     5.1714    39.4210 </r>
       <r>     1.5702     4.6562    39.6940 </r>
       <r>     1.6288     4.1400    39.9367 </r>
       <r>     1.6875     4.1165    40.1782 </r>
       <r>     1.7461     4.6935    40.4534 </r>
       <r>     1.8047     5.5099    40.7765 </r>
       <r>     1.8633     6.1212    41.1354 </r>
       <r>     1.9220     6.4047    41.5110 </r>
       <r>     1.9806     6.5371    41.8943 </r>
       <r>     2.0392     6.6651    42.2852 </r>
       <r>     2.0978     6.7452    42.6809 </r>
       <r>     2.1565     6.6609    43.0717 </r>
       <r>     2.2151     6.4740    43.4513 </r>
       <r>     2.2737     6.4002    43.8265 </r>
       <r>     2.3323     6.5982    44.2133 </r>
       <r>     2.3910     6.9793    44.6227 </r>
       <r>     2.4496     7.2135    45.0458 </r>
       <r>     2.5082     6.9982    45.4563 </r>
       <r>     2.5668     6.3706    45.8299 </r>
       <r>     2.6255     5.6361    46.1605 </r>
       <r>     2.6841     4.9903    46.4533 </r>
       <r>     2.7427     4.3877    46.7108 </r>
       <r>     2.8013     3.7684    46.9319 </r>
       <r>     2.8600     3.1389    47.1160 </r>
       <r>     2.9186     2.5178    47.2638 </r>
       <r>     2.9772     1.9484    47.3781 </r>
       <r>     3.0358     1.5256    47.4679 </r>
       <r>     3.0945     1.3223    47.5457 </r>
       <r>     3.1531     1.2855    47.6213 </r>
       <r>     3.2117     1.2687    47.6958 </r>
       <r>     3.2703     1.1572    47.7638 </r>
       <r>     3.3290     0.9748    47.8211 </r>
       <r>     3.3876     0.8078    47.8685 </r>
       <r>     3.4462     0.6800    47.9085 </r>
       <r>     3.5048     0.5567    47.9412 </r>
       <r>     3.5635     0.4143    47.9656 </r>
       <r>     3.6221     0.2704    47.9814 </r>
       <r>     3.6807     0.1558    47.9906 </r>
       <r>     3.7393     0.0817    47.9954 </r>
       <r>     3.7980     0.0404    47.9978 </r>
       <r>     3.8566     0.0187    47.9990 </r>
       <r>     3.9152     0.0089    47.9995 </r>
       <r>     3.9738     0.0041    47.9998 </r>
       <r>     4.0325     0.0017    47.9999 </r>
       <r>     4.0911     0.0006    48.0000 </r>
       <r>     4.1497     0.0000    48.0000 </r>
       <r>     4.2083     0.0000    48.0000 </r>
       <r>     4.2670     0.0000    48.0000 </r>
       <r>     4.3256     0.0000    48.0000 </r>
      </set>
     </set>
    </array>
   </total>
  </dos>
 </calculation>
 <structure name="finalpos" >
  <crystal>
   <varray name="basis" >
    <v>       3.45200000       0.00000000       0.00000000 </v>
    <v>       0.00000000       6.36800000       0.00000000 </v>
    <v>       0.00000000       0.00000000      16.00000000 </v>
   </varray>
   <i name="volume">    351.71737600 </i>
   <varray name="rec_basis" >
    <v>       0.28968714       0.00000000       0.00000000 </v>
    <v>       0.00000000       0.15703518       0.00000000 </v>
    <v>       0.00000000       0.00000000       0.06250000 </v>
   </varray>
  </crystal>
  <varray name="positions" >
   <v>       0.50000000       0.10160158       0.12916910 </v>
   <v>       0.50000000       0.74915936       0.90755702 </v>
   <v>       0.00000000       0.25743970       0.87083073 </v>
   <v>      -0.00000000       0.60987816       0.09244376 </v>
   <v>       0.50000000       0.36077868       0.99406715 </v>
   <v>      -0.00000000       0.99825935       0.00593224 </v>
  </varray>
 </structure>
</modeling>
