2D MoTe2 in a box                       
           1
     3.452000    0.000000    0.000000
     0.000000    6.368000    0.000000
     0.000000    0.000000   16.000000
   Te   Mo
   4   2
Direct configuration=     1
   0.50000000  0.10163317  0.12913313
   0.50000000  0.74915672  0.90758437
   0.00000000  0.25741049  0.87086563
   0.00000000  0.60988065  0.09241625
   0.50000000  0.36059673  0.99406750
   0.00000000  0.99843907  0.00593312
Direct configuration=     2
   0.50000000  0.10160294  0.12916756
   0.50000000  0.74915925  0.90755820
   0.00000000  0.25743845  0.87083222
  -0.00000000  0.60987826  0.09244258
   0.50000000  0.36077088  0.99406717
  -0.00000000  0.99826706  0.00593228
Direct configuration=     3
   0.50000000  0.10160158  0.12916910
   0.50000000  0.74915936  0.90755702
   0.00000000  0.25743970  0.87083073
  -0.00000000  0.60987816  0.09244376
   0.50000000  0.36077868  0.99406715
  -0.00000000  0.99825935  0.00593224
