   6   6   0   0
  0.5822693E+02  0.3551000E-09  0.6149000E-09  0.1600000E-08  0.5000000E-15
  1.000000000000000E-004
  CAR 
 2D MoTe2 in a box                       
      4.17786595    -13.25807590  301      0.10951760      1.00000000
    -13.258  0.0000E+00  0.0000E+00
    -13.200  0.0000E+00  0.0000E+00
    -13.142  0.0000E+00  0.0000E+00
    -13.084  0.0000E+00  0.0000E+00
    -13.026  0.0000E+00  0.0000E+00
    -12.967  0.0000E+00  0.0000E+00
    -12.909  0.0000E+00  0.0000E+00
    -12.851  0.5526E-07  0.3212E-08
    -12.793  0.3917E-06  0.2598E-07
    -12.735  0.1491E-05  0.1126E-06
    -12.677  0.5589E-05  0.4374E-06
    -12.619  0.2134E-04  0.1678E-05
    -12.561  0.7724E-04  0.6167E-05
    -12.503  0.2433E-03  0.2031E-04
    -12.444  0.5628E-03  0.5302E-04
    -12.386  0.8779E-03  0.1040E-03
    -12.328  0.1031E-02  0.1640E-03
    -12.270  0.1110E-02  0.2285E-03
    -12.212  0.1130E-02  0.2941E-03
    -12.154  0.1110E-02  0.3586E-03
    -12.096  0.1172E-02  0.4268E-03
    -12.038  0.1211E-02  0.4972E-03
    -11.979  0.1150E-02  0.5640E-03
    -11.921  0.1142E-02  0.6305E-03
    -11.863  0.1266E-02  0.7041E-03
    -11.805  0.1301E-02  0.7798E-03
    -11.747  0.1251E-02  0.8526E-03
    -11.689  0.1247E-02  0.9251E-03
    -11.631  0.1455E-02  0.1010E-02
    -11.573  0.1980E-02  0.1125E-02
    -11.514  0.2409E-02  0.1265E-02
    -11.456  0.2678E-02  0.1421E-02
    -11.398  0.2824E-02  0.1585E-02
    -11.340  0.2951E-02  0.1756E-02
    -11.282  0.3228E-02  0.1944E-02
    -11.224  0.3250E-02  0.2133E-02
    -11.166  0.3170E-02  0.2317E-02
    -11.108  0.3280E-02  0.2508E-02
    -11.050  0.3409E-02  0.2706E-02
    -10.991  0.3657E-02  0.2919E-02
    -10.933  0.3879E-02  0.3145E-02
    -10.875  0.3917E-02  0.3373E-02
    -10.817  0.3990E-02  0.3605E-02
    -10.759  0.4397E-02  0.3860E-02
    -10.701  0.5087E-02  0.4156E-02
    -10.643  0.5485E-02  0.4475E-02
    -10.585  0.5946E-02  0.4821E-02
    -10.526  0.6535E-02  0.5201E-02
    -10.468  0.6559E-02  0.5582E-02
    -10.410  0.6095E-02  0.5936E-02
    -10.352  0.6071E-02  0.6290E-02
    -10.294  0.6248E-02  0.6653E-02
    -10.236  0.6036E-02  0.7004E-02
    -10.178  0.5435E-02  0.7320E-02
    -10.120  0.4450E-02  0.7579E-02
    -10.061  0.3383E-02  0.7776E-02
    -10.003  0.2244E-02  0.7906E-02
     -9.945  0.1084E-02  0.7970E-02
     -9.887  0.3711E-03  0.7992E-02
     -9.829  0.1019E-03  0.7998E-02
     -9.771  0.2573E-04  0.7999E-02
     -9.713  0.4739E-05  0.8000E-02
     -9.655  0.0000E+00  0.8000E-02
     -9.597  0.0000E+00  0.8000E-02
     -9.538  0.0000E+00  0.8000E-02
     -9.480  0.0000E+00  0.8000E-02
     -9.422  0.0000E+00  0.8000E-02
     -9.364  0.0000E+00  0.8000E-02
     -9.306  0.0000E+00  0.8000E-02
     -9.248  0.0000E+00  0.8000E-02
     -9.190  0.0000E+00  0.8000E-02
     -9.132  0.0000E+00  0.8000E-02
     -9.073  0.0000E+00  0.8000E-02
     -9.015  0.0000E+00  0.8000E-02
     -8.957  0.0000E+00  0.8000E-02
     -8.899  0.0000E+00  0.8000E-02
     -8.841  0.0000E+00  0.8000E-02
     -8.783  0.0000E+00  0.8000E-02
     -8.725  0.0000E+00  0.8000E-02
     -8.667  0.0000E+00  0.8000E-02
     -8.608  0.0000E+00  0.8000E-02
     -8.550  0.0000E+00  0.8000E-02
     -8.492  0.0000E+00  0.8000E-02
     -8.434  0.0000E+00  0.8000E-02
     -8.376  0.0000E+00  0.8000E-02
     -8.318  0.0000E+00  0.8000E-02
     -8.260  0.0000E+00  0.8000E-02
     -8.202  0.0000E+00  0.8000E-02
     -8.144  0.0000E+00  0.8000E-02
     -8.085  0.0000E+00  0.8000E-02
     -8.027  0.0000E+00  0.8000E-02
     -7.969  0.0000E+00  0.8000E-02
     -7.911  0.0000E+00  0.8000E-02
     -7.853  0.0000E+00  0.8000E-02
     -7.795  0.0000E+00  0.8000E-02
     -7.737  0.0000E+00  0.8000E-02
     -7.679  0.0000E+00  0.8000E-02
     -7.620  0.0000E+00  0.8000E-02
     -7.562  0.0000E+00  0.8000E-02
     -7.504  0.0000E+00  0.8000E-02
     -7.446  0.0000E+00  0.8000E-02
     -7.388  0.0000E+00  0.8000E-02
     -7.330  0.0000E+00  0.8000E-02
     -7.272  0.0000E+00  0.8000E-02
     -7.214  0.0000E+00  0.8000E-02
     -7.155  0.0000E+00  0.8000E-02
     -7.097  0.0000E+00  0.8000E-02
     -7.039  0.0000E+00  0.8000E-02
     -6.981  0.0000E+00  0.8000E-02
     -6.923  0.0000E+00  0.8000E-02
     -6.865  0.0000E+00  0.8000E-02
     -6.807  0.0000E+00  0.8000E-02
     -6.749  0.0000E+00  0.8000E-02
     -6.691  0.0000E+00  0.8000E-02
     -6.632  0.0000E+00  0.8000E-02
     -6.574  0.0000E+00  0.8000E-02
     -6.516  0.0000E+00  0.8000E-02
     -6.458  0.0000E+00  0.8000E-02
     -6.400  0.0000E+00  0.8000E-02
     -6.342  0.0000E+00  0.8000E-02
     -6.284  0.0000E+00  0.8000E-02
     -6.226  0.0000E+00  0.8000E-02
     -6.167  0.0000E+00  0.8000E-02
     -6.109  0.0000E+00  0.8000E-02
     -6.051  0.0000E+00  0.8000E-02
     -5.993  0.0000E+00  0.8000E-02
     -5.935  0.0000E+00  0.8000E-02
     -5.877  0.0000E+00  0.8000E-02
     -5.819  0.0000E+00  0.8000E-02
     -5.761  0.0000E+00  0.8000E-02
     -5.703  0.0000E+00  0.8000E-02
     -5.644  0.1545E-06  0.8000E-02
     -5.586  0.7520E-06  0.8000E-02
     -5.528  0.2580E-05  0.8000E-02
     -5.470  0.1050E-04  0.8001E-02
     -5.412  0.3945E-04  0.8003E-02
     -5.354  0.1416E-03  0.8011E-02
     -5.296  0.4326E-03  0.8036E-02
     -5.238  0.9339E-03  0.8091E-02
     -5.179  0.1356E-02  0.8170E-02
     -5.121  0.1618E-02  0.8264E-02
     -5.063  0.1794E-02  0.8368E-02
     -5.005  0.1796E-02  0.8472E-02
     -4.947  0.1753E-02  0.8574E-02
     -4.889  0.1973E-02  0.8689E-02
     -4.831  0.2551E-02  0.8837E-02
     -4.773  0.2873E-02  0.9004E-02
     -4.714  0.3014E-02  0.9180E-02
     -4.656  0.3249E-02  0.9368E-02
     -4.598  0.3823E-02  0.9591E-02
     -4.540  0.4491E-02  0.9852E-02
     -4.482  0.5008E-02  0.1014E-01
     -4.424  0.6201E-02  0.1050E-01
     -4.366  0.7844E-02  0.1096E-01
     -4.308  0.8299E-02  0.1144E-01
     -4.250  0.7487E-02  0.1188E-01
     -4.191  0.6805E-02  0.1227E-01
     -4.133  0.6341E-02  0.1264E-01
     -4.075  0.6134E-02  0.1300E-01
     -4.017  0.5638E-02  0.1333E-01
     -3.959  0.4192E-02  0.1357E-01
     -3.901  0.2840E-02  0.1374E-01
     -3.843  0.2025E-02  0.1385E-01
     -3.785  0.1438E-02  0.1394E-01
     -3.726  0.1326E-02  0.1402E-01
     -3.668  0.1504E-02  0.1410E-01
     -3.610  0.1595E-02  0.1420E-01
     -3.552  0.1629E-02  0.1429E-01
     -3.494  0.1872E-02  0.1440E-01
     -3.436  0.2702E-02  0.1456E-01
     -3.378  0.4286E-02  0.1481E-01
     -3.320  0.6449E-02  0.1518E-01
     -3.261  0.9004E-02  0.1570E-01
     -3.203  0.1085E-01  0.1633E-01
     -3.145  0.1060E-01  0.1695E-01
     -3.087  0.8272E-02  0.1743E-01
     -3.029  0.5507E-02  0.1775E-01
     -2.971  0.3698E-02  0.1797E-01
     -2.913  0.3203E-02  0.1815E-01
     -2.855  0.3916E-02  0.1838E-01
     -2.797  0.5521E-02  0.1870E-01
     -2.738  0.6688E-02  0.1909E-01
     -2.680  0.6641E-02  0.1948E-01
     -2.622  0.5725E-02  0.1981E-01
     -2.564  0.5307E-02  0.2012E-01
     -2.506  0.5493E-02  0.2044E-01
     -2.448  0.5453E-02  0.2076E-01
     -2.390  0.5221E-02  0.2106E-01
     -2.332  0.5734E-02  0.2139E-01
     -2.273  0.6427E-02  0.2177E-01
     -2.215  0.6356E-02  0.2214E-01
     -2.157  0.5811E-02  0.2247E-01
     -2.099  0.5046E-02  0.2277E-01
     -2.041  0.4630E-02  0.2304E-01
     -1.983  0.4345E-02  0.2329E-01
     -1.925  0.3779E-02  0.2351E-01
     -1.867  0.3446E-02  0.2371E-01
     -1.808  0.3438E-02  0.2391E-01
     -1.750  0.3808E-02  0.2413E-01
     -1.692  0.4440E-02  0.2439E-01
     -1.634  0.5084E-02  0.2469E-01
     -1.576  0.6427E-02  0.2506E-01
     -1.518  0.8602E-02  0.2556E-01
     -1.460  0.1011E-01  0.2615E-01
     -1.402  0.1004E-01  0.2673E-01
     -1.344  0.8969E-02  0.2725E-01
     -1.285  0.8158E-02  0.2773E-01
     -1.227  0.8505E-02  0.2822E-01
     -1.169  0.8463E-02  0.2871E-01
     -1.111  0.7510E-02  0.2915E-01
     -1.053  0.6492E-02  0.2953E-01
     -0.995  0.5950E-02  0.2987E-01
     -0.937  0.5760E-02  0.3021E-01
     -0.879  0.5603E-02  0.3054E-01
     -0.820  0.5390E-02  0.3085E-01
     -0.762  0.5647E-02  0.3118E-01
     -0.704  0.6373E-02  0.3155E-01
     -0.646  0.7078E-02  0.3196E-01
     -0.588  0.7499E-02  0.3240E-01
     -0.530  0.7535E-02  0.3283E-01
     -0.472  0.7345E-02  0.3326E-01
     -0.414  0.7250E-02  0.3368E-01
     -0.355  0.7036E-02  0.3409E-01
     -0.297  0.6585E-02  0.3448E-01
     -0.239  0.6454E-02  0.3485E-01
     -0.181  0.6213E-02  0.3521E-01
     -0.123  0.5119E-02  0.3551E-01
     -0.065  0.3605E-02  0.3572E-01
     -0.007  0.2359E-02  0.3586E-01
      0.051  0.1412E-02  0.3594E-01
      0.109  0.6833E-03  0.3598E-01
      0.168  0.2412E-03  0.3599E-01
      0.226  0.6723E-04  0.3600E-01
      0.284  0.1641E-04  0.3600E-01
      0.342  0.3582E-05  0.3600E-01
      0.400  0.0000E+00  0.3600E-01
      0.458  0.0000E+00  0.3600E-01
      0.516  0.0000E+00  0.3600E-01
      0.574  0.0000E+00  0.3600E-01
      0.633  0.0000E+00  0.3600E-01
      0.691  0.0000E+00  0.3600E-01
      0.749  0.0000E+00  0.3600E-01
      0.807  0.3172E-06  0.3600E-01
      0.865  0.9965E-06  0.3600E-01
      0.923  0.4156E-05  0.3600E-01
      0.981  0.1671E-04  0.3600E-01
      1.039  0.6226E-04  0.3600E-01
      1.098  0.2142E-03  0.3602E-01
      1.156  0.5862E-03  0.3605E-01
      1.214  0.1194E-02  0.3612E-01
      1.272  0.2187E-02  0.3625E-01
      1.330  0.4000E-02  0.3648E-01
      1.388  0.6709E-02  0.3687E-01
      1.446  0.1007E-01  0.3746E-01
      1.504  0.1235E-01  0.3817E-01
      1.562  0.1051E-01  0.3878E-01
      1.621  0.7337E-02  0.3921E-01
      1.679  0.7188E-02  0.3963E-01
      1.737  0.9185E-02  0.4016E-01
      1.795  0.9530E-02  0.4072E-01
      1.853  0.7929E-02  0.4118E-01
      1.911  0.6527E-02  0.4156E-01
      1.969  0.6588E-02  0.4194E-01
      2.027  0.7420E-02  0.4237E-01
      2.086  0.8141E-02  0.4285E-01
      2.144  0.8723E-02  0.4335E-01
      2.202  0.8692E-02  0.4386E-01
      2.260  0.8212E-02  0.4434E-01
      2.318  0.7521E-02  0.4477E-01
      2.376  0.5977E-02  0.4512E-01
      2.434  0.4914E-02  0.4541E-01
      2.492  0.4580E-02  0.4567E-01
      2.551  0.4017E-02  0.4591E-01
      2.609  0.3851E-02  0.4613E-01
      2.667  0.3671E-02  0.4635E-01
      2.725  0.2992E-02  0.4652E-01
      2.783  0.2590E-02  0.4667E-01
      2.841  0.2433E-02  0.4681E-01
      2.899  0.2417E-02  0.4695E-01
      2.957  0.2619E-02  0.4711E-01
      3.015  0.2427E-02  0.4725E-01
      3.074  0.2032E-02  0.4736E-01
      3.132  0.2065E-02  0.4749E-01
      3.190  0.2306E-02  0.4762E-01
      3.248  0.2219E-02  0.4775E-01
      3.306  0.1699E-02  0.4785E-01
      3.364  0.1284E-02  0.4792E-01
      3.422  0.8305E-03  0.4797E-01
      3.480  0.3577E-03  0.4799E-01
      3.539  0.1117E-03  0.4800E-01
      3.597  0.2909E-04  0.4800E-01
      3.655  0.7483E-05  0.4800E-01
      3.713  0.8310E-06  0.4800E-01
      3.771  0.0000E+00  0.4800E-01
      3.829  0.0000E+00  0.4800E-01
      3.887  0.0000E+00  0.4800E-01
      3.945  0.0000E+00  0.4800E-01
      4.004  0.0000E+00  0.4800E-01
      4.062  0.0000E+00  0.4800E-01
      4.120  0.0000E+00  0.4800E-01
      4.178  0.0000E+00  0.4800E-01
