    6    6 1000    1
  0.5822693E+02  0.3551000E-09  0.6149000E-09  0.1600000E-08  0.5000000E-15
  1.000000000000000E-004
  CAR 
 2D MoTe2 in a box                       
     36    162     24
 
  0.2777778E-01  0.2777778E-01  0.1262379E-14  0.6172840E-02
    1      -12.465533
    2      -11.567476
    3      -10.565485
    4      -10.233975
    5       -5.260254
    6       -4.824712
    7       -4.426228
    8       -3.219855
    9       -2.222234
   10       -1.642959
   11       -1.608589
   12       -1.574957
   13       -1.528660
   14       -0.826872
   15       -0.796947
   16       -0.729249
   17       -0.389574
   18       -0.221851
   19        1.452645
   20        1.780000
   21        3.103311
   22        3.166574
   23        3.337442
   24        3.364329
 
  0.8333333E-01  0.2777778E-01  0.1262379E-14  0.6172840E-02
    1      -12.404062
    2      -11.522612
    3      -10.534698
    4      -10.209273
    5       -5.185853
    6       -4.756307
    7       -4.408709
    8       -3.196757
    9       -2.330905
   10       -1.772243
   11       -1.747988
   12       -1.523081
   13       -1.512215
   14       -1.121831
   15       -0.916040
   16       -0.722819
   17       -0.395431
   18       -0.178038
   19        1.478952
   20        1.817423
   21        2.832933
   22        2.971477
   23        3.184651
   24        3.219454
 
  0.1388889E+00  0.2777778E-01  0.1262379E-14  0.6172840E-02
    1      -12.282963
    2      -11.434349
    3      -10.477926
    4      -10.164043
    5       -5.039690
    6       -4.624356
    7       -4.381796
    8       -3.161290
    9       -2.499109
   10       -2.006949
   11       -1.970443
   12       -1.701190
   13       -1.507761
   14       -1.426695
   15       -1.109930
   16       -0.636392
   17       -0.419077
   18       -0.146585
   19        1.461729
   20        1.939458
   21        2.467462
   22        2.489925
   23        2.698863
   24        2.980047
 
  0.1944444E+00  0.2777778E-01  0.1262379E-14  0.6172840E-02
    1      -12.106102
    2      -11.305830
    3      -10.405268
    4      -10.106878
    5       -4.828042
    6       -4.439918
    7       -4.360723
    8       -3.145669
    9       -2.669398
   10       -2.352966
   11       -2.311922
   12       -2.195170
   13       -1.532336
   14       -1.419135
   15       -1.305328
   16       -0.586305
   17       -0.476591
   18       -0.100152
   19        1.376730
   20        2.048185
   21        2.141196
   22        2.172848
   23        2.308043
   24        2.624116
 
  0.2500000E+00  0.2777778E-01  0.1262379E-14  0.6172840E-02
    1      -11.879873
    2      -11.142142
    3      -10.332930
    4      -10.051040
    5       -4.565844
    6       -4.360472
    7       -4.224942
    8       -3.278289
    9       -2.793312
   10       -2.741469
   11       -2.738428
   12       -2.435087
   13       -1.816116
   14       -1.579757
   15       -1.216671
   16       -0.597984
   17       -0.552417
   18       -0.026768
   19        1.258316
   20        1.710384
   21        2.023909
   22        2.061974
   23        2.257066
   24        2.362738
 
  0.3055556E+00  0.2777778E-01  0.1262379E-14  0.6172840E-02
    1      -11.613840
    2      -10.950880
    3      -10.283491
    4      -10.013833
    5       -4.377360
    6       -4.311572
    7       -4.031959
    8       -3.603447
    9       -3.100616
   10       -2.848079
   11       -2.831382
   12       -2.719805
   13       -2.208719
   14       -1.622604
   15       -1.285617
   16       -0.679058
   17       -0.552325
   18        0.044081
   19        1.161934
   20        1.470608
   21        1.954896
   22        1.974365
   23        2.010478
   24        2.525510
 
  0.3611111E+00  0.2777778E-01  0.1262379E-14  0.6172840E-02
    1      -11.321994
    2      -10.742856
    3      -10.283700
    4      -10.014049
    5       -4.377133
    6       -4.311306
    7       -4.006526
    8       -3.603589
    9       -3.271073
   10       -3.097999
   11       -2.847892
   12       -2.831359
   13       -2.481432
   14       -1.622776
   15       -1.545450
   16       -0.822374
   17       -0.462840
   18        0.044223
   19        1.161681
   20        1.331149
   21        1.821639
   22        1.954952
   23        2.074872
   24        2.525130
 
  0.4166667E+00  0.2777778E-01  0.1262379E-14  0.6172840E-02
    1      -11.023840
    2      -10.532402
    3      -10.357344
    4      -10.066619
    5       -4.472166
    6       -4.312265
    7       -4.205752
    8       -3.512023
    9       -3.274713
   10       -3.186881
   11       -2.823069
   12       -2.822831
   13       -2.638980
   14       -1.909912
   15       -1.551471
   16       -1.009923
   17       -0.375519
   18       -0.052541
   19        1.276899
   20        1.354237
   21        1.745549
   22        2.019529
   23        2.143068
   24        2.311834
 
  0.4722222E+00  0.2777778E-01  0.1262379E-14  0.6172840E-02
    1      -10.744937
    2      -10.514436
    3      -10.337300
    4      -10.176725
    5       -4.517560
    6       -4.415333
    7       -4.148631
    8       -3.876717
    9       -3.055464
   10       -3.013396
   11       -2.786857
   12       -2.731700
   13       -2.704459
   14       -2.321271
   15       -1.407585
   16       -1.215695
   17       -0.296092
   18       -0.186277
   19        1.430014
   20        1.487465
   21        1.734732
   22        1.983425
   23        2.102173
   24        2.155265
 
 -0.4722222E+00  0.2777778E-01  0.1262379E-14  0.6172840E-02
    1      -10.744937
    2      -10.514436
    3      -10.337300
    4      -10.176725
    5       -4.517560
    6       -4.415333
    7       -4.148631
    8       -3.876717
    9       -3.055464
   10       -3.013396
   11       -2.786857
   12       -2.731700
   13       -2.704459
   14       -2.321271
   15       -1.407585
   16       -1.215695
   17       -0.296092
   18       -0.186277
   19        1.430014
   20        1.487465
   21        1.734732
   22        1.983425
   23        2.102173
   24        2.155265
 
 -0.4166667E+00  0.2777778E-01  0.1262379E-14  0.6172840E-02
    1      -11.023840
    2      -10.532402
    3      -10.357344
    4      -10.066619
    5       -4.472166
    6       -4.312265
    7       -4.205752
    8       -3.512023
    9       -3.274713
   10       -3.186881
   11       -2.823069
   12       -2.822831
   13       -2.638980
   14       -1.909912
   15       -1.551471
   16       -1.009923
   17       -0.375519
   18       -0.052541
   19        1.276899
   20        1.354237
   21        1.745549
   22        2.019529
   23        2.143068
   24        2.311834
 
 -0.3611111E+00  0.2777778E-01  0.1262379E-14  0.6172840E-02
    1      -11.321994
    2      -10.742856
    3      -10.283700
    4      -10.014049
    5       -4.377133
    6       -4.311306
    7       -4.006526
    8       -3.603589
    9       -3.271073
   10       -3.097999
   11       -2.847892
   12       -2.831359
   13       -2.481432
   14       -1.622776
   15       -1.545450
   16       -0.822374
   17       -0.462840
   18        0.044223
   19        1.161681
   20        1.331149
   21        1.821639
   22        1.954952
   23        2.074872
   24        2.525130
 
 -0.3055556E+00  0.2777778E-01  0.1262379E-14  0.6172840E-02
    1      -11.613840
    2      -10.950880
    3      -10.283491
    4      -10.013833
    5       -4.377360
    6       -4.311572
    7       -4.031959
    8       -3.603447
    9       -3.100616
   10       -2.848079
   11       -2.831382
   12       -2.719805
   13       -2.208719
   14       -1.622604
   15       -1.285616
   16       -0.679058
   17       -0.552325
   18        0.044081
   19        1.161934
   20        1.470608
   21        1.954896
   22        1.974365
   23        2.010478
   24        2.525510
 
 -0.2500000E+00  0.2777778E-01  0.1262379E-14  0.6172840E-02
    1      -11.879873
    2      -11.142142
    3      -10.332930
    4      -10.051040
    5       -4.565844
    6       -4.360472
    7       -4.224942
    8       -3.278289
    9       -2.793312
   10       -2.741469
   11       -2.738428
   12       -2.435087
   13       -1.816116
   14       -1.579757
   15       -1.216671
   16       -0.597984
   17       -0.552417
   18       -0.026768
   19        1.258316
   20        1.710384
   21        2.023909
   22        2.061974
   23        2.257066
   24        2.362738
 
 -0.1944444E+00  0.2777778E-01  0.1262379E-14  0.6172840E-02
    1      -12.106102
    2      -11.305830
    3      -10.405268
    4      -10.106878
    5       -4.828042
    6       -4.439918
    7       -4.360723
    8       -3.145669
    9       -2.669398
   10       -2.352966
   11       -2.311922
   12       -2.195170
   13       -1.532336
   14       -1.419135
   15       -1.305328
   16       -0.586305
   17       -0.476591
   18       -0.100152
   19        1.376730
   20        2.048185
   21        2.141196
   22        2.172848
   23        2.308043
   24        2.624116
 
 -0.1388889E+00  0.2777778E-01  0.1262379E-14  0.6172840E-02
    1      -12.282963
    2      -11.434349
    3      -10.477926
    4      -10.164043
    5       -5.039690
    6       -4.624356
    7       -4.381796
    8       -3.161290
    9       -2.499109
   10       -2.006949
   11       -1.970443
   12       -1.701190
   13       -1.507761
   14       -1.426695
   15       -1.109930
   16       -0.636392
   17       -0.419077
   18       -0.146585
   19        1.461729
   20        1.939458
   21        2.467462
   22        2.489925
   23        2.698863
   24        2.980047
 
 -0.8333333E-01  0.2777778E-01  0.1262379E-14  0.6172840E-02
    1      -12.404062
    2      -11.522612
    3      -10.534698
    4      -10.209273
    5       -5.185853
    6       -4.756307
    7       -4.408709
    8       -3.196757
    9       -2.330905
   10       -1.772243
   11       -1.747988
   12       -1.523081
   13       -1.512215
   14       -1.121831
   15       -0.916040
   16       -0.722819
   17       -0.395431
   18       -0.178038
   19        1.478952
   20        1.817423
   21        2.832933
   22        2.971477
   23        3.216173
   24        3.244140
 
 -0.2777778E-01  0.2777778E-01  0.1262379E-14  0.6172840E-02
    1      -12.465533
    2      -11.567476
    3      -10.565485
    4      -10.233975
    5       -5.260254
    6       -4.824712
    7       -4.426228
    8       -3.219855
    9       -2.222234
   10       -1.642959
   11       -1.608589
   12       -1.574957
   13       -1.528660
   14       -0.826872
   15       -0.796947
   16       -0.729249
   17       -0.389574
   18       -0.221851
   19        1.452645
   20        1.780000
   21        3.103311
   22        3.166574
   23        3.337542
   24        3.374213
 
  0.2777778E-01  0.8333333E-01  0.1262379E-14  0.6172840E-02
    1      -12.444965
    2      -11.552454
    3      -10.610463
    4      -10.263119
    5       -5.192365
    6       -4.801720
    7       -4.369331
    8       -3.227362
    9       -2.207293
   10       -1.689373
   11       -1.654669
   12       -1.558644
   13       -1.518453
   14       -0.857636
   15       -0.767090
   16       -0.759504
   17       -0.391004
   18       -0.245712
   19        1.469929
   20        1.752427
   21        3.005167
   22        3.183746
   23        3.201342
   24        3.311057
 
  0.8333333E-01  0.8333333E-01  0.1262379E-14  0.6172840E-02
    1      -12.383695
    2      -11.507750
    3      -10.578459
    4      -10.237805
    5       -5.121372
    6       -4.733853
    7       -4.352739
    8       -3.202014
    9       -2.324513
   10       -1.810899
   11       -1.793338
   12       -1.505836
   13       -1.492306
   14       -1.140105
   15       -0.936823
   16       -0.713494
   17       -0.398339
   18       -0.201607
   19        1.490969
   20        1.781446
   21        2.759784
   22        2.868434
   23        3.128880
   24        3.212813
 
  0.1388889E+00  0.8333333E-01  0.1262379E-14  0.6172840E-02
    1      -12.263019
    2      -11.419841
    3      -10.519187
    4      -10.191282
    5       -4.983237
    6       -4.603178
    7       -4.328416
    8       -3.160686
    9       -2.500859
   10       -2.051685
   11       -2.006904
   12       -1.706390
   13       -1.478306
   14       -1.407264
   15       -1.104815
   16       -0.663189
   17       -0.425266
   18       -0.172086
   19        1.479973
   20        1.884585
   21        2.413419
   22        2.433323
   23        2.675779
   24        2.966795
 
  0.1944444E+00  0.8333333E-01  0.1262379E-14  0.6172840E-02
    1      -12.086866
    2      -11.291906
    3      -10.442621
    4      -10.131987
    5       -4.787782
    6       -4.421244
    7       -4.313136
    8       -3.129716
    9       -2.674120
   10       -2.397960
   11       -2.309495
   12       -2.239271
   13       -1.498655
   14       -1.386534
   15       -1.280762
   16       -0.645090
   17       -0.488125
   18       -0.130359
   19        1.405470
   20        1.996633
   21        2.069984
   22        2.181876
   23        2.300600
   24        2.633037
 
  0.2500000E+00  0.8333333E-01  0.1262379E-14  0.6172840E-02
    1      -11.861686
    2      -11.129110
    3      -10.364844
    4      -10.073030
    5       -4.560209
    6       -4.323534
    7       -4.211292
    8       -3.215780
    9       -2.794435
   10       -2.787281
   11       -2.745493
   12       -2.497385
   13       -1.756997
   14       -1.548038
   15       -1.181387
   16       -0.672592
   17       -0.570194
   18       -0.062341
   19        1.296915
   20        1.686699
   21        2.068941
   22        2.069536
   23        2.274756
   24        2.282458
 
  0.3055556E+00  0.8333333E-01  0.1262379E-14  0.6172840E-02
    1      -11.597211
    2      -10.939184
    3      -10.308419
    4      -10.031632
    5       -4.383796
    6       -4.355417
    7       -4.030826
    8       -3.470178
    9       -3.143628
   10       -2.840254
   11       -2.832582
   12       -2.802256
   13       -2.127276
   14       -1.597786
   15       -1.237274
   16       -0.751647
   17       -0.568348
   18        0.007440
   19        1.205082
   20        1.475655
   21        1.976555
   22        1.983978
   23        2.078507
   24        2.448126
 
  0.3611111E+00  0.8333333E-01  0.1262379E-14  0.6172840E-02
    1      -11.307628
    2      -10.733105
    3      -10.300406
    4      -10.026710
    5       -4.424856
    6       -4.371736
    7       -4.035985
    8       -3.456530
    9       -3.297520
   10       -3.175311
   11       -2.829181
   12       -2.809418
   13       -2.403990
   14       -1.607997
   15       -1.479005
   16       -0.881414
   17       -0.468913
   18        0.017936
   19        1.196938
   20        1.350578
   21        1.820491
   22        1.991011
   23        2.152378
   24        2.467890
 
  0.4166667E+00  0.8333333E-01  0.1262379E-14  0.6172840E-02
    1      -11.012790
    2      -10.525400
    3      -10.365420
    4      -10.073630
    5       -4.559791
    6       -4.322964
    7       -4.258132
    8       -3.570454
    9       -3.216063
   10       -3.209695
   11       -2.793867
   12       -2.745254
   13       -2.577985
   14       -1.814216
   15       -1.548503
   16       -1.051432
   17       -0.372940
   18       -0.061976
   19        1.296331
   20        1.369139
   21        1.741671
   22        2.069165
   23        2.221550
   24        2.281599
 
  0.4722222E+00  0.8333333E-01  0.1262379E-14  0.6172840E-02
    1      -10.738617
    2      -10.514554
    3      -10.334043
    4      -10.178219
    5       -4.590356
    6       -4.478633
    7       -4.174607
    8       -3.918059
    9       -3.093435
   10       -3.063004
   11       -2.748641
   12       -2.683681
   13       -2.541089
   14       -2.188428
   15       -1.417546
   16       -1.240349
   17       -0.290260
   18       -0.184150
   19        1.437461
   20        1.492378
   21        1.732314
   22        1.972239
   23        2.164448
   24        2.228014
 
 -0.4722222E+00  0.8333333E-01  0.1262379E-14  0.6172840E-02
    1      -10.738617
    2      -10.514554
    3      -10.334043
    4      -10.178219
    5       -4.590356
    6       -4.478633
    7       -4.174607
    8       -3.918059
    9       -3.093435
   10       -3.063004
   11       -2.748641
   12       -2.683681
   13       -2.541089
   14       -2.188428
   15       -1.417546
   16       -1.240349
   17       -0.290260
   18       -0.184150
   19        1.437460
   20        1.492378
   21        1.732314
   22        1.972239
   23        2.164448
   24        2.228014
 
 -0.4166667E+00  0.8333333E-01  0.1262379E-14  0.6172840E-02
    1      -11.012790
    2      -10.525400
    3      -10.365420
    4      -10.073630
    5       -4.559791
    6       -4.322964
    7       -4.258132
    8       -3.570454
    9       -3.216063
   10       -3.209695
   11       -2.793867
   12       -2.745254
   13       -2.577985
   14       -1.814216
   15       -1.548503
   16       -1.051432
   17       -0.372940
   18       -0.061976
   19        1.296331
   20        1.369139
   21        1.741671
   22        2.069165
   23        2.221550
   24        2.281599
 
 -0.3611111E+00  0.8333333E-01  0.1262379E-14  0.6172840E-02
    1      -11.307628
    2      -10.733105
    3      -10.300406
    4      -10.026710
    5       -4.424856
    6       -4.371736
    7       -4.035985
    8       -3.456530
    9       -3.297520
   10       -3.175311
   11       -2.829181
   12       -2.809418
   13       -2.403990
   14       -1.607997
   15       -1.479005
   16       -0.881414
   17       -0.468913
   18        0.017936
   19        1.196938
   20        1.350578
   21        1.820491
   22        1.991011
   23        2.152378
   24        2.467890
 
 -0.3055556E+00  0.8333333E-01  0.1262379E-14  0.6172840E-02
    1      -11.597211
    2      -10.939184
    3      -10.308419
    4      -10.031632
    5       -4.383796
    6       -4.355417
    7       -4.030826
    8       -3.470178
    9       -3.143628
   10       -2.840254
   11       -2.832582
   12       -2.802256
   13       -2.127276
   14       -1.597786
   15       -1.237274
   16       -0.751647
   17       -0.568348
   18        0.007440
   19        1.205082
   20        1.475655
   21        1.976555
   22        1.983978
   23        2.078507
   24        2.448126
 
 -0.2500000E+00  0.8333333E-01  0.1262379E-14  0.6172840E-02
    1      -11.861686
    2      -11.129110
    3      -10.364844
    4      -10.073030
    5       -4.560209
    6       -4.323534
    7       -4.211292
    8       -3.215780
    9       -2.794435
   10       -2.787281
   11       -2.745493
   12       -2.497385
   13       -1.756997
   14       -1.548038
   15       -1.181387
   16       -0.672592
   17       -0.570194
   18       -0.062341
   19        1.296915
   20        1.686699
   21        2.068941
   22        2.069536
   23        2.274756
   24        2.282458
 
 -0.1944444E+00  0.8333333E-01  0.1262379E-14  0.6172840E-02
    1      -12.086866
    2      -11.291906
    3      -10.442621
    4      -10.131987
    5       -4.787782
    6       -4.421244
    7       -4.313136
    8       -3.129716
    9       -2.674120
   10       -2.397960
   11       -2.309495
   12       -2.239271
   13       -1.498655
   14       -1.386534
   15       -1.280762
   16       -0.645090
   17       -0.488125
   18       -0.130359
   19        1.405470
   20        1.996633
   21        2.069984
   22        2.181876
   23        2.300600
   24        2.633037
 
 -0.1388889E+00  0.8333333E-01  0.1262379E-14  0.6172840E-02
    1      -12.263019
    2      -11.419841
    3      -10.519187
    4      -10.191282
    5       -4.983237
    6       -4.603178
    7       -4.328416
    8       -3.160686
    9       -2.500859
   10       -2.051685
   11       -2.006904
   12       -1.706389
   13       -1.478306
   14       -1.407264
   15       -1.104815
   16       -0.663189
   17       -0.425266
   18       -0.172086
   19        1.479973
   20        1.884585
   21        2.413419
   22        2.433323
   23        2.675779
   24        2.966795
 
 -0.8333333E-01  0.8333333E-01  0.1262379E-14  0.6172840E-02
    1      -12.383695
    2      -11.507750
    3      -10.578459
    4      -10.237805
    5       -5.121372
    6       -4.733853
    7       -4.352739
    8       -3.202014
    9       -2.324513
   10       -1.810899
   11       -1.793338
   12       -1.505836
   13       -1.492306
   14       -1.140105
   15       -0.936823
   16       -0.713494
   17       -0.398339
   18       -0.201607
   19        1.490969
   20        1.781446
   21        2.759784
   22        2.868434
   23        3.128945
   24        3.225202
 
 -0.2777778E-01  0.8333333E-01  0.1262379E-14  0.6172840E-02
    1      -12.444965
    2      -11.552454
    3      -10.610463
    4      -10.263119
    5       -5.192365
    6       -4.801720
    7       -4.369331
    8       -3.227362
    9       -2.207293
   10       -1.689373
   11       -1.654669
   12       -1.558644
   13       -1.518453
   14       -0.857636
   15       -0.767090
   16       -0.759504
   17       -0.391004
   18       -0.245712
   19        1.469929
   20        1.752427
   21        3.005167
   22        3.183746
   23        3.201342
   24        3.309513
 
  0.2777778E-01  0.1388889E+00  0.1262379E-14  0.6172840E-02
    1      -12.404023
    2      -11.522569
    3      -10.696040
    4      -10.319093
    5       -5.062296
    6       -4.756273
    7       -4.258786
    8       -3.244258
    9       -2.177646
   10       -1.772022
   11       -1.746455
   12       -1.524726
   13       -1.497411
   14       -0.917200
   15       -0.811011
   16       -0.721871
   17       -0.395358
   18       -0.291625
   19        1.503705
   20        1.707234
   21        2.833769
   22        2.973148
   23        3.217284
   24        3.235779
 
  0.8333333E-01  0.1388889E+00  0.1262379E-14  0.6172840E-02
    1      -12.343168
    2      -11.478191
    3      -10.661834
    4      -10.292630
    5       -4.997924
    6       -4.689490
    7       -4.243845
    8       -3.214764
    9       -2.311386
   10       -1.880789
   11       -1.880082
   12       -1.473415
   13       -1.452724
   14       -1.171403
   15       -1.000887
   16       -0.681419
   17       -0.405448
   18       -0.243959
   19        1.507026
   20        1.728773
   21        2.629117
   22        2.698022
   23        3.032155
   24        3.120717
 
  0.1388889E+00  0.1388889E+00  0.1262379E-14  0.6172840E-02
    1      -12.223342
    2      -11.390986
    3      -10.598015
    4      -10.243671
    5       -4.875439
    6       -4.561367
    7       -4.224321
    8       -3.162806
    9       -2.502695
   10       -2.136130
   11       -2.070687
   12       -1.712678
   13       -1.421362
   14       -1.372606
   15       -1.129084
   16       -0.689059
   17       -0.438359
   18       -0.215495
   19        1.504942
   20        1.798852
   21        2.289882
   22        2.368195
   23        2.629355
   24        2.911645
 
  0.1944444E+00  0.1388889E+00  0.1262379E-14  0.6172840E-02
    1      -12.048606
    2      -11.264223
    3      -10.514296
    4      -10.180392
    5       -4.711240
    6       -4.384498
    7       -4.220333
    8       -3.105379
    9       -2.681046
   10       -2.481584
   11       -2.313417
   12       -2.297696
   13       -1.434612
   14       -1.350061
   15       -1.237617
   16       -0.739879
   17       -0.510848
   18       -0.180762
   19        1.451240
   20        1.915343
   21        1.951583
   22        2.191287
   23        2.285118
   24        2.621846
 
  0.2500000E+00  0.1388889E+00  0.1262379E-14  0.6172840E-02
    1      -11.825543
    2      -11.103225
    3      -10.426466
    4      -10.115584
    5       -4.545742
    6       -4.251828
    7       -4.185009
    8       -3.108473
    9       -2.870698
   10       -2.793958
   11       -2.749123
   12       -2.594835
   13       -1.672503
   14       -1.488300
   15       -1.117778
   16       -0.802047
   17       -0.605166
   18       -0.121122
   19        1.360730
   20        1.650078
   21        2.082504
   22        2.143012
   23        2.145697
   24        2.290151
 
  0.3055556E+00  0.1388889E+00  0.1262379E-14  0.6172840E-02
    1      -11.564206
    2      -10.915986
    3      -10.356969
    4      -10.066244
    5       -4.472884
    6       -4.312783
    7       -4.031727
    8       -3.274290
    9       -3.216728
   10       -2.921396
   11       -2.823010
   12       -2.822913
   13       -2.013718
   14       -1.551164
   15       -1.149960
   16       -0.879245
   17       -0.600274
   18       -0.052998
   19        1.277476
   20        1.484966
   21        1.996054
   22        2.019455
   23        2.193972
   24        2.312567
 
  0.3611111E+00  0.1388889E+00  0.1262379E-14  0.6172840E-02
    1      -11.279196
    2      -10.713797
    3      -10.333340
    4      -10.051481
    5       -4.565899
    6       -4.360184
    7       -4.096726
    8       -3.334212
    9       -3.291805
   10       -3.278260
   11       -2.792742
   12       -2.738016
   13       -2.289498
   14       -1.580087
   15       -1.361702
   16       -0.986235
   17       -0.480997
   18       -0.026737
   19        1.258067
   20        1.386726
   21        1.816334
   22        2.062181
   23        2.289891
   24        2.362257
 
  0.4166667E+00  0.1388889E+00  0.1262379E-14  0.6172840E-02
    1      -10.991023
    2      -10.511599
    3      -10.381628
    4      -10.087446
    5       -4.691406
    6       -4.354496
    7       -4.340828
    8       -3.666058
    9       -3.239667
   10       -3.164779
   11       -2.740121
   12       -2.568779
   13       -2.478947
   14       -1.648661
   15       -1.542342
   16       -1.125913
   17       -0.368628
   18       -0.078819
   19        1.331589
   20        1.397775
   21        1.733319
   22        2.166652
   23        2.222994
   24        2.366858
 
  0.4722222E+00  0.1388889E+00  0.1262379E-14  0.6172840E-02
    1      -10.726355
    2      -10.515115
    3      -10.327679
    4      -10.181259
    5       -4.710879
    6       -4.589456
    7       -4.219680
    8       -3.988822
    9       -3.138269
   10       -3.105825
   11       -2.680089
   12       -2.600789
   13       -2.297242
   14       -1.971240
   15       -1.435249
   16       -1.284814
   17       -0.279534
   18       -0.180224
   19        1.450689
   20        1.500717
   21        1.728314
   22        1.950541
   23        2.285610
   24        2.367160
 
 -0.4722222E+00  0.1388889E+00  0.1262379E-14  0.6172840E-02
    1      -10.726355
    2      -10.515115
    3      -10.327679
    4      -10.181259
    5       -4.710879
    6       -4.589456
    7       -4.219680
    8       -3.988822
    9       -3.138269
   10       -3.105825
   11       -2.680089
   12       -2.600789
   13       -2.297242
   14       -1.971240
   15       -1.435249
   16       -1.284814
   17       -0.279534
   18       -0.180224
   19        1.450689
   20        1.500717
   21        1.728314
   22        1.950541
   23        2.285610
   24        2.367160
 
 -0.4166667E+00  0.1388889E+00  0.1262379E-14  0.6172840E-02
    1      -10.991023
    2      -10.511599
    3      -10.381628
    4      -10.087446
    5       -4.691406
    6       -4.354496
    7       -4.340828
    8       -3.666058
    9       -3.239667
   10       -3.164779
   11       -2.740121
   12       -2.568779
   13       -2.478947
   14       -1.648661
   15       -1.542342
   16       -1.125913
   17       -0.368628
   18       -0.078819
   19        1.331589
   20        1.397775
   21        1.733319
   22        2.166652
   23        2.222994
   24        2.366858
 
 -0.3611111E+00  0.1388889E+00  0.1262379E-14  0.6172840E-02
    1      -11.279196
    2      -10.713797
    3      -10.333340
    4      -10.051481
    5       -4.565899
    6       -4.360184
    7       -4.096726
    8       -3.334212
    9       -3.291805
   10       -3.278260
   11       -2.792742
   12       -2.738016
   13       -2.289498
   14       -1.580088
   15       -1.361702
   16       -0.986234
   17       -0.480997
   18       -0.026737
   19        1.258067
   20        1.386726
   21        1.816334
   22        2.062181
   23        2.289891
   24        2.362257
 
 -0.3055556E+00  0.1388889E+00  0.1262379E-14  0.6172840E-02
    1      -11.564206
    2      -10.915986
    3      -10.356969
    4      -10.066244
    5       -4.472884
    6       -4.312783
    7       -4.031728
    8       -3.274290
    9       -3.216728
   10       -2.921396
   11       -2.823010
   12       -2.822913
   13       -2.013718
   14       -1.551164
   15       -1.149960
   16       -0.879245
   17       -0.600274
   18       -0.052998
   19        1.277476
   20        1.484966
   21        1.996054
   22        2.019455
   23        2.193972
   24        2.312567
 
 -0.2500000E+00  0.1388889E+00  0.1262379E-14  0.6172840E-02
    1      -11.825543
    2      -11.103225
    3      -10.426466
    4      -10.115584
    5       -4.545742
    6       -4.251828
    7       -4.185009
    8       -3.108473
    9       -2.870698
   10       -2.793958
   11       -2.749123
   12       -2.594835
   13       -1.672503
   14       -1.488300
   15       -1.117778
   16       -0.802048
   17       -0.605166
   18       -0.121122
   19        1.360730
   20        1.650078
   21        2.082504
   22        2.143012
   23        2.145697
   24        2.290151
 
 -0.1944444E+00  0.1388889E+00  0.1262379E-14  0.6172840E-02
    1      -12.048606
    2      -11.264223
    3      -10.514296
    4      -10.180392
    5       -4.711240
    6       -4.384498
    7       -4.220333
    8       -3.105379