       N       E                     dE             d eps       ncg     rms          rms(c)
DAV:   1     0.187251182634E+03    0.18725E+03   -0.95948E+03  7776   0.794E+02
DAV:   2    -0.179351192512E+02   -0.20519E+03   -0.19997E+03 11608   0.177E+02
DAV:   3    -0.368024352638E+02   -0.18867E+02   -0.18679E+02 10320   0.597E+01
DAV:   4    -0.374886661584E+02   -0.68623E+00   -0.68347E+00 12464   0.129E+01
DAV:   5    -0.374987791469E+02   -0.10113E-01   -0.10107E-01 11048   0.175E+00    0.214E+01
DAV:   6    -0.366680091852E+02    0.83077E+00   -0.73730E+00 10208   0.120E+01    0.922E+00
DAV:   7    -0.366319419296E+02    0.36067E-01   -0.87443E+00  9872   0.136E+01    0.743E+00
DAV:   8    -0.360936871330E+02    0.53825E+00   -0.14824E+00 10448   0.584E+00    0.251E+00
DAV:   9    -0.360674540537E+02    0.26233E-01   -0.34784E-01 10864   0.272E+00    0.685E-01
DAV:  10    -0.360628533263E+02    0.46007E-02   -0.27289E-02 10992   0.887E-01    0.252E-01
DAV:  11    -0.360621208600E+02    0.73247E-03   -0.51199E-03 11096   0.346E-01    0.254E-01
DAV:  12    -0.360616292870E+02    0.49157E-03   -0.13313E-03 10944   0.175E-01    0.128E-01
DAV:  13    -0.360615320410E+02    0.97246E-04   -0.48543E-04 11488   0.928E-02    0.894E-02
DAV:  14    -0.360611385876E+02    0.39345E-03   -0.49006E-04  9288   0.833E-02    0.401E-02
DAV:  15    -0.360611800985E+02   -0.41511E-04   -0.85981E-05 11400   0.405E-02    0.297E-02
DAV:  16    -0.360613378049E+02   -0.15771E-03   -0.19268E-05  9440   0.210E-02    0.345E-02
DAV:  17    -0.360614780712E+02   -0.14027E-03   -0.20125E-05  9320   0.170E-02    0.207E-02
DAV:  18    -0.360615815402E+02   -0.10347E-03   -0.90626E-06 10496   0.128E-02    0.634E-03
DAV:  19    -0.360616528439E+02   -0.71304E-04   -0.24371E-06  7176   0.599E-03    0.793E-03
DAV:  20    -0.360616666661E+02   -0.13822E-04   -0.48821E-07  6472   0.268E-03    0.377E-03
DAV:  21    -0.360616696099E+02   -0.29438E-05   -0.16110E-07  5704   0.140E-03    0.153E-03
DAV:  22    -0.360616701884E+02   -0.57845E-06   -0.73981E-08  5024   0.102E-03
   1 F= -.36061670E+02 E0= -.36060109E+02  d E =-.360617E+02
       N       E                     dE             d eps       ncg     rms          rms(c)
DAV:   1    -0.360616790359E+02   -0.94260E-05   -0.36610E-04  8200   0.839E-02    0.156E-02
DAV:   2    -0.360616795159E+02   -0.48000E-06   -0.17556E-05  8992   0.204E-02    0.928E-03
DAV:   3    -0.360616791170E+02    0.39892E-06   -0.48737E-07  4520   0.432E-03
   2 F= -.36061679E+02 E0= -.36060117E+02  d E =-.892862E-05
       N       E                     dE             d eps       ncg     rms          rms(c)
DAV:   1    -0.360616793534E+02    0.16250E-06   -0.92455E-05  8272   0.422E-02    0.838E-03
DAV:   2    -0.360616793467E+02    0.66732E-08   -0.48553E-06  8576   0.977E-03
   3 F= -.36061679E+02 E0= -.36060117E+02  d E =-.915837E-05
