<?xml version="1.0" encoding="ISO-8859-1"?>
<modeling>
 <generator>
  <i name="program" type="string">vasp </i>
  <i name="version" type="string">5.3.5  </i>
  <i name="subversion" type="string">31Mar14 (build Mar 18 2017 11:34:20) complex                          parallel </i>
  <i name="platform" type="string">LinuxIFC </i>
  <i name="date" type="string">2017 10 27 </i>
  <i name="time" type="string">21:55:25 </i>
 </generator>
 <incar>
  <i type="string" name="SYSTEM"> 2D MoTe2 in a box</i>
  <i type="string" name="PREC">accurate</i>
  <i type="string" name="ALGO"> Normal</i>
  <i type="int" name="NELMDL">    -5</i>
  <i type="int" name="IBRION">     2</i>
  <i name="EDIFF">      0.00000100</i>
  <i type="int" name="NSW">  1000</i>
  <i type="int" name="ISIF">     2</i>
  <i type="int" name="ISYM">     0</i>
  <i name="ENCUT">    350.00000000</i>
  <i name="POTIM">      0.50000000</i>
  <i name="NELECT">     35.98000000</i>
  <i type="logical" name="LREAL"> F  </i>
  <i type="int" name="ISMEAR">    -1</i>
  <i name="SIGMA">      0.04310869</i>
  <i type="int" name="NWRITE">     3</i>
  <i type="logical" name="LWAVE"> F  </i>
  <i type="logical" name="LCHARG"> F  </i>
 </incar>
 <kpoints>
  <generation param="Monkhorst-Pack">
   <v type="int" name="divisions">      18       18        1 </v>
   <v name="usershift">      0.00000000       0.00000000       0.00000000 </v>
   <v name="genvec1">      0.05555556       0.00000000       0.00000000 </v>
   <v name="genvec2">      0.00000000       0.05555556       0.00000000 </v>
   <v name="genvec3">      0.00000000       0.00000000       1.00000000 </v>
   <v name="shift">      0.50000000       0.50000000       0.00000000 </v>
  </generation>
  <varray name="kpointlist" >
   <v>       0.02777778       0.02777778       0.00000000 </v>
   <v>       0.08333333       0.02777778       0.00000000 </v>
   <v>       0.13888889       0.02777778       0.00000000 </v>
   <v>       0.19444444       0.02777778       0.00000000 </v>
   <v>       0.25000000       0.02777778       0.00000000 </v>
   <v>       0.30555556       0.02777778       0.00000000 </v>
   <v>       0.36111111       0.02777778       0.00000000 </v>
   <v>       0.41666667       0.02777778       0.00000000 </v>
   <v>       0.47222222       0.02777778       0.00000000 </v>
   <v>      -0.47222222       0.02777778       0.00000000 </v>
   <v>      -0.41666667       0.02777778       0.00000000 </v>
   <v>      -0.36111111       0.02777778       0.00000000 </v>
   <v>      -0.30555556       0.02777778       0.00000000 </v>
   <v>      -0.25000000       0.02777778       0.00000000 </v>
   <v>      -0.19444444       0.02777778       0.00000000 </v>
   <v>      -0.13888889       0.02777778       0.00000000 </v>
   <v>      -0.08333333       0.02777778       0.00000000 </v>
   <v>      -0.02777778       0.02777778       0.00000000 </v>
   <v>       0.02777778       0.08333333       0.00000000 </v>
   <v>       0.08333333       0.08333333       0.00000000 </v>
   <v>       0.13888889       0.08333333       0.00000000 </v>
   <v>       0.19444444       0.08333333       0.00000000 </v>
   <v>       0.25000000       0.08333333       0.00000000 </v>
   <v>       0.30555556       0.08333333       0.00000000 </v>
   <v>       0.36111111       0.08333333       0.00000000 </v>
   <v>       0.41666667       0.08333333       0.00000000 </v>
   <v>       0.47222222       0.08333333       0.00000000 </v>
   <v>      -0.47222222       0.08333333       0.00000000 </v>
   <v>      -0.41666667       0.08333333       0.00000000 </v>
   <v>      -0.36111111       0.08333333       0.00000000 </v>
   <v>      -0.30555556       0.08333333       0.00000000 </v>
   <v>      -0.25000000       0.08333333       0.00000000 </v>
   <v>      -0.19444444       0.08333333       0.00000000 </v>
   <v>      -0.13888889       0.08333333       0.00000000 </v>
   <v>      -0.08333333       0.08333333       0.00000000 </v>
   <v>      -0.02777778       0.08333333       0.00000000 </v>
   <v>       0.02777778       0.13888889       0.00000000 </v>
   <v>       0.08333333       0.13888889       0.00000000 </v>
   <v>       0.13888889       0.13888889       0.00000000 </v>
   <v>       0.19444444       0.13888889       0.00000000 </v>
   <v>       0.25000000       0.13888889       0.00000000 </v>
   <v>       0.30555556       0.13888889       0.00000000 </v>
   <v>       0.36111111       0.13888889       0.00000000 </v>
   <v>       0.41666667       0.13888889       0.00000000 </v>
   <v>       0.47222222       0.13888889       0.00000000 </v>
   <v>      -0.47222222       0.13888889       0.00000000 </v>
   <v>      -0.41666667       0.13888889       0.00000000 </v>
   <v>      -0.36111111       0.13888889       0.00000000 </v>
   <v>      -0.30555556       0.13888889       0.00000000 </v>
   <v>      -0.25000000       0.13888889       0.00000000 </v>
   <v>      -0.19444444       0.13888889       0.00000000 </v>
   <v>      -0.13888889       0.13888889       0.00000000 </v>
   <v>      -0.08333333       0.13888889       0.00000000 </v>
   <v>      -0.02777778       0.13888889       0.00000000 </v>
   <v>       0.02777778       0.19444444       0.00000000 </v>
   <v>       0.08333333       0.19444444       0.00000000 </v>
   <v>       0.13888889       0.19444444       0.00000000 </v>
   <v>       0.19444444       0.19444444       0.00000000 </v>
   <v>       0.25000000       0.19444444       0.00000000 </v>
   <v>       0.30555556       0.19444444       0.00000000 </v>
   <v>       0.36111111       0.19444444       0.00000000 </v>
   <v>       0.41666667       0.19444444       0.00000000 </v>
   <v>       0.47222222       0.19444444       0.00000000 </v>
   <v>      -0.47222222       0.19444444       0.00000000 </v>
   <v>      -0.41666667       0.19444444       0.00000000 </v>
   <v>      -0.36111111       0.19444444       0.00000000 </v>
   <v>      -0.30555556       0.19444444       0.00000000 </v>
   <v>      -0.25000000       0.19444444       0.00000000 </v>
   <v>      -0.19444444       0.19444444       0.00000000 </v>
   <v>      -0.13888889       0.19444444       0.00000000 </v>
   <v>      -0.08333333       0.19444444       0.00000000 </v>
   <v>      -0.02777778       0.19444444       0.00000000 </v>
   <v>       0.02777778       0.25000000       0.00000000 </v>
   <v>       0.08333333       0.25000000       0.00000000 </v>
   <v>       0.13888889       0.25000000       0.00000000 </v>
   <v>       0.19444444       0.25000000       0.00000000 </v>
   <v>       0.25000000       0.25000000       0.00000000 </v>
   <v>       0.30555556       0.25000000       0.00000000 </v>
   <v>       0.36111111       0.25000000       0.00000000 </v>
   <v>       0.41666667       0.25000000       0.00000000 </v>
   <v>       0.47222222       0.25000000       0.00000000 </v>
   <v>      -0.47222222       0.25000000       0.00000000 </v>
   <v>      -0.41666667       0.25000000       0.00000000 </v>
   <v>      -0.36111111       0.25000000       0.00000000 </v>
   <v>      -0.30555556       0.25000000       0.00000000 </v>
   <v>      -0.25000000       0.25000000       0.00000000 </v>
   <v>      -0.19444444       0.25000000       0.00000000 </v>
   <v>      -0.13888889       0.25000000       0.00000000 </v>
   <v>      -0.08333333       0.25000000       0.00000000 </v>
   <v>      -0.02777778       0.25000000       0.00000000 </v>
   <v>       0.02777778       0.30555556       0.00000000 </v>
   <v>       0.08333333       0.30555556       0.00000000 </v>
   <v>       0.13888889       0.30555556       0.00000000 </v>
   <v>       0.19444444       0.30555556       0.00000000 </v>
   <v>       0.25000000       0.30555556       0.00000000 </v>
   <v>       0.30555556       0.30555556       0.00000000 </v>
   <v>       0.36111111       0.30555556       0.00000000 </v>
   <v>       0.41666667       0.30555556       0.00000000 </v>
   <v>       0.47222222       0.30555556       0.00000000 </v>
   <v>      -0.47222222       0.30555556       0.00000000 </v>
   <v>      -0.41666667       0.30555556       0.00000000 </v>
   <v>      -0.36111111       0.30555556       0.00000000 </v>
   <v>      -0.30555556       0.30555556       0.00000000 </v>
   <v>      -0.25000000       0.30555556       0.00000000 </v>
   <v>      -0.19444444       0.30555556       0.00000000 </v>
   <v>      -0.13888889       0.30555556       0.00000000 </v>
   <v>      -0.08333333       0.30555556       0.00000000 </v>
   <v>      -0.02777778       0.30555556       0.00000000 </v>
   <v>       0.02777778       0.36111111       0.00000000 </v>
   <v>       0.08333333       0.36111111       0.00000000 </v>
   <v>       0.13888889       0.36111111       0.00000000 </v>
   <v>       0.19444444       0.36111111       0.00000000 </v>
   <v>       0.25000000       0.36111111       0.00000000 </v>
   <v>       0.30555556       0.36111111       0.00000000 </v>
   <v>       0.36111111       0.36111111       0.00000000 </v>
   <v>       0.41666667       0.36111111       0.00000000 </v>
   <v>       0.47222222       0.36111111       0.00000000 </v>
   <v>      -0.47222222       0.36111111       0.00000000 </v>
   <v>      -0.41666667       0.36111111       0.00000000 </v>
   <v>      -0.36111111       0.36111111       0.00000000 </v>
   <v>      -0.30555556       0.36111111       0.00000000 </v>
   <v>      -0.25000000       0.36111111       0.00000000 </v>
   <v>      -0.19444444       0.36111111       0.00000000 </v>
   <v>      -0.13888889       0.36111111       0.00000000 </v>
   <v>      -0.08333333       0.36111111       0.00000000 </v>
   <v>      -0.02777778       0.36111111       0.00000000 </v>
   <v>       0.02777778       0.41666667       0.00000000 </v>
   <v>       0.08333333       0.41666667       0.00000000 </v>
   <v>       0.13888889       0.41666667       0.00000000 </v>
   <v>       0.19444444       0.41666667       0.00000000 </v>
   <v>       0.25000000       0.41666667       0.00000000 </v>
   <v>       0.30555556       0.41666667       0.00000000 </v>
   <v>       0.36111111       0.41666667       0.00000000 </v>
   <v>       0.41666667       0.41666667       0.00000000 </v>
   <v>       0.47222222       0.41666667       0.00000000 </v>
   <v>      -0.47222222       0.41666667       0.00000000 </v>
   <v>      -0.41666667       0.41666667       0.00000000 </v>
   <v>      -0.36111111       0.41666667       0.00000000 </v>
   <v>      -0.30555556       0.41666667       0.00000000 </v>
   <v>      -0.25000000       0.41666667       0.00000000 </v>
   <v>      -0.19444444       0.41666667       0.00000000 </v>
   <v>      -0.13888889       0.41666667       0.00000000 </v>
   <v>      -0.08333333       0.41666667       0.00000000 </v>
   <v>      -0.02777778       0.41666667       0.00000000 </v>
   <v>       0.02777778       0.47222222       0.00000000 </v>
   <v>       0.08333333       0.47222222       0.00000000 </v>
   <v>       0.13888889       0.47222222       0.00000000 </v>
   <v>       0.19444444       0.47222222       0.00000000 </v>
   <v>       0.25000000       0.47222222       0.00000000 </v>
   <v>       0.30555556       0.47222222       0.00000000 </v>
   <v>       0.36111111       0.47222222       0.00000000 </v>
   <v>       0.41666667       0.47222222       0.00000000 </v>
   <v>       0.47222222       0.47222222       0.00000000 </v>
   <v>      -0.47222222       0.47222222       0.00000000 </v>
   <v>      -0.41666667       0.47222222       0.00000000 </v>
   <v>      -0.36111111       0.47222222       0.00000000 </v>
   <v>      -0.30555556       0.47222222       0.00000000 </v>
   <v>      -0.25000000       0.47222222       0.00000000 </v>
   <v>      -0.19444444       0.47222222       0.00000000 </v>
   <v>      -0.13888889       0.47222222       0.00000000 </v>
   <v>      -0.08333333       0.47222222       0.00000000 </v>
   <v>      -0.02777778       0.47222222       0.00000000 </v>
  </varray>
  <varray name="weights" >
   <v>       0.00617284 </v>
   <v>       0.00617284 </v>
   <v>       0.00617284 </v>
   <v>       0.00617284 </v>
   <v>       0.00617284 </v>
   <v>       0.00617284 </v>
   <v>       0.00617284 </v>
   <v>       0.00617284 </v>
   <v>       0.00617284 </v>
   <v>       0.00617284 </v>
   <v>       0.00617284 </v>
   <v>       0.00617284 </v>
   <v>       0.00617284 </v>
   <v>       0.00617284 </v>
   <v>       0.00617284 </v>
   <v>       0.00617284 </v>
   <v>       0.00617284 </v>
   <v>       0.00617284 </v>
   <v>       0.00617284 </v>
   <v>       0.00617284 </v>
   <v>       0.00617284 </v>
   <v>       0.00617284 </v>
   <v>       0.00617284 </v>
   <v>       0.00617284 </v>
   <v>       0.00617284 </v>
   <v>       0.00617284 </v>
   <v>       0.00617284 </v>
   <v>       0.00617284 </v>
   <v>       0.00617284 </v>
   <v>       0.00617284 </v>
   <v>       0.00617284 </v>
   <v>       0.00617284 </v>
   <v>       0.00617284 </v>
   <v>       0.00617284 </v>
   <v>       0.00617284 </v>
   <v>       0.00617284 </v>
   <v>       0.00617284 </v>
   <v>       0.00617284 </v>
   <v>       0.00617284 </v>
   <v>       0.00617284 </v>
   <v>       0.00617284 </v>
   <v>       0.00617284 </v>
   <v>       0.00617284 </v>
   <v>       0.00617284 </v>
   <v>       0.00617284 </v>
   <v>       0.00617284 </v>
   <v>       0.00617284 </v>
   <v>       0.00617284 </v>
   <v>       0.00617284 </v>
   <v>       0.00617284 </v>
   <v>       0.00617284 </v>
   <v>       0.00617284 </v>
   <v>       0.00617284 </v>
   <v>       0.00617284 </v>
   <v>       0.00617284 </v>
   <v>       0.00617284 </v>
   <v>       0.00617284 </v>
   <v>       0.00617284 </v>
   <v>       0.00617284 </v>
   <v>       0.00617284 </v>
   <v>       0.00617284 </v>
   <v>       0.00617284 </v>
   <v>       0.00617284 </v>
   <v>       0.00617284 </v>
   <v>       0.00617284 </v>
   <v>       0.00617284 </v>
   <v>       0.00617284 </v>
   <v>       0.00617284 </v>
   <v>       0.00617284 </v>
   <v>       0.00617284 </v>
   <v>       0.00617284 </v>
   <v>       0.00617284 </v>
   <v>       0.00617284 </v>
   <v>       0.00617284 </v>
   <v>       0.00617284 </v>
   <v>       0.00617284 </v>
   <v>       0.00617284 </v>
   <v>       0.00617284 </v>
   <v>       0.00617284 </v>
   <v>       0.00617284 </v>
   <v>       0.00617284 </v>
   <v>       0.00617284 </v>
   <v>       0.00617284 </v>
   <v>       0.00617284 </v>
   <v>       0.00617284 </v>
   <v>       0.00617284 </v>
   <v>       0.00617284 </v>
   <v>       0.00617284 </v>
   <v>       0.00617284 </v>
   <v>       0.00617284 </v>
   <v>       0.00617284 </v>
   <v>       0.00617284 </v>
   <v>       0.00617284 </v>
   <v>       0.00617284 </v>
   <v>       0.00617284 </v>
   <v>       0.00617284 </v>
   <v>       0.00617284 </v>
   <v>       0.00617284 </v>
   <v>       0.00617284 </v>
   <v>       0.00617284 </v>
   <v>       0.00617284 </v>
   <v>       0.00617284 </v>
   <v>       0.00617284 </v>
   <v>       0.00617284 </v>
   <v>       0.00617284 </v>
   <v>       0.00617284 </v>
   <v>       0.00617284 </v>
   <v>       0.00617284 </v>
   <v>       0.00617284 </v>
   <v>       0.00617284 </v>
   <v>       0.00617284 </v>
   <v>       0.00617284 </v>
   <v>       0.00617284 </v>
   <v>       0.00617284 </v>
   <v>       0.00617284 </v>
   <v>       0.00617284 </v>
   <v>       0.00617284 </v>
   <v>       0.00617284 </v>
   <v>       0.00617284 </v>
   <v>       0.00617284 </v>
   <v>       0.00617284 </v>
   <v>       0.00617284 </v>
   <v>       0.00617284 </v>
   <v>       0.00617284 </v>
   <v>       0.00617284 </v>
   <v>       0.00617284 </v>
   <v>       0.00617284 </v>
   <v>       0.00617284 </v>
   <v>       0.00617284 </v>
   <v>       0.00617284 </v>
   <v>       0.00617284 </v>
   <v>       0.00617284 </v>
   <v>       0.00617284 </v>
   <v>       0.00617284 </v>
   <v>       0.00617284 </v>
   <v>       0.00617284 </v>
   <v>       0.00617284 </v>
   <v>       0.00617284 </v>
   <v>       0.00617284 </v>
   <v>       0.00617284 </v>
   <v>       0.00617284 </v>
   <v>       0.00617284 </v>
   <v>       0.00617284 </v>
   <v>       0.00617284 </v>
   <v>       0.00617284 </v>
   <v>       0.00617284 </v>
   <v>       0.00617284 </v>
   <v>       0.00617284 </v>
   <v>       0.00617284 </v>
   <v>       0.00617284 </v>
   <v>       0.00617284 </v>
   <v>       0.00617284 </v>
   <v>       0.00617284 </v>
   <v>       0.00617284 </v>
   <v>       0.00617284 </v>
   <v>       0.00617284 </v>
   <v>       0.00617284 </v>
   <v>       0.00617284 </v>
   <v>       0.00617284 </v>
   <v>       0.00617284 </v>
   <v>       0.00617284 </v>
   <v>       0.00617284 </v>
  </varray>
 </kpoints>
 <parameters>
  <separator name="general" >
   <i type="string" name="SYSTEM">2D MoTe2 in a box</i>
   <i type="logical" name="LCOMPAT"> F  </i>
  </separator>
  <separator name="electronic" >
   <i type="string" name="PREC">accura</i>
   <i name="ENMAX">    350.00000000</i>
   <i name="ENAUG">    368.79200000</i>
   <i name="EDIFF">      0.00000100</i>
   <i type="int" name="IALGO">    38</i>
   <i type="int" name="IWAVPR">    11</i>
   <i type="int" name="NBANDS">    24</i>
   <i name="NELECT">     35.98000000</i>
   <i type="int" name="TURBO">     0</i>
   <i type="int" name="IRESTART">     0</i>
   <i type="int" name="NREBOOT">     0</i>
   <i type="int" name="NMIN">     0</i>
   <i name="EREF">      0.00000000</i>
   <separator name="electronic smearing" >
    <i type="int" name="ISMEAR">    -1</i>
    <i name="SIGMA">      0.04310869</i>
    <i name="KSPACING">      0.50000000</i>
    <i type="logical" name="KGAMMA"> T  </i>
   </separator>
   <separator name="electronic projectors" >
    <i type="logical" name="LREAL"> F  </i>
    <v name="ROPT">      0.00000000      0.00000000</v>
    <i type="int" name="LMAXPAW">  -100</i>
    <i type="int" name="LMAXMIX">     2</i>
    <i type="logical" name="NLSPLINE"> F  </i>
   </separator>
   <separator name="electronic startup" >
    <i type="int" name="ISTART">     0</i>
    <i type="int" name="ICHARG">     2</i>
    <i type="int" name="INIWAV">     1</i>
   </separator>
   <separator name="electronic spin" >
    <i type="int" name="ISPIN">     1</i>
    <i type="logical" name="LNONCOLLINEAR"> F  </i>
    <v name="MAGMOM">      1.00000000      1.00000000      1.00000000      1.00000000      1.00000000      1.00000000</v>
    <i name="NUPDOWN">     -1.00000000</i>
    <i type="logical" name="LSORBIT"> F  </i>
    <v name="SAXIS">      0.00000000      0.00000000      1.00000000</v>
    <i type="logical" name="LSPIRAL"> F  </i>
    <v name="QSPIRAL">      0.00000000      0.00000000      0.00000000</v>
    <i type="logical" name="LZEROZ"> F  </i>
   </separator>
   <separator name="electronic exchange-correlation" >
    <i type="logical" name="LASPH"> F  </i>
    <i type="logical" name="LMETAGGA"> F  </i>
   </separator>
   <separator name="electronic convergence" >
    <i type="int" name="NELM">    60</i>
    <i type="int" name="NELMDL">    -5</i>
    <i type="int" name="NELMIN">     2</i>
    <i name="ENINI">    350.00000000</i>
    <separator name="electronic convergence detail" >
     <i type="logical" name="LDIAG"> T  </i>
     <i type="logical" name="LSUBROT"> F  </i>
     <i name="WEIMIN">      0.00100000</i>
     <i name="EBREAK">      0.00000001</i>
     <i name="DEPER">      0.30000000</i>
     <i type="int" name="NRMM">     4</i>
     <i name="TIME">      0.40000000</i>
    </separator>
   </separator>
   <separator name="electronic mixer" >
    <i name="AMIX">      0.40000000</i>
    <i name="BMIX">      1.00000000</i>
    <i name="AMIN">      0.10000000</i>
    <i name="AMIX_MAG">      1.60000000</i>
    <i name="BMIX_MAG">      1.00000000</i>
    <separator name="electronic mixer details" >
     <i type="int" name="IMIX">     4</i>
     <i type="int" name="MAXMIX">   -45</i>
     <i name="WC">    100.00000000</i>
     <i type="int" name="INIMIX">     1</i>
     <i type="int" name="MIXPRE">     1</i>
     <i type="int" name="MREMOVE">     5</i>
    </separator>
   </separator>
   <separator name="electronic dipolcorrection" >
    <i type="logical" name="LDIPOL"> F  </i>
    <i type="logical" name="LMONO"> F  </i>
    <i type="int" name="IDIPOL">     0</i>
    <i name="EPSILON">      1.00000000</i>
    <v name="DIPOL">   -100.00000000   -100.00000000   -100.00000000</v>
    <i name="EFIELD">      0.00000000</i>
   </separator>
  </separator>
  <separator name="grids" >
   <i type="int" name="NGX">    24</i>
   <i type="int" name="NGY">    40</i>
   <i type="int" name="NGZ">    98</i>
   <i type="int" name="NGXF">    48</i>
   <i type="int" name="NGYF">    80</i>
   <i type="int" name="NGZF">   196</i>
   <i type="logical" name="ADDGRID"> F  </i>
  </separator>
  <separator name="ionic" >
   <i type="int" name="NSW">  1000</i>
   <i type="int" name="IBRION">     2</i>
   <i type="int" name="ISIF">     2</i>
   <i name="PSTRESS">      0.00000000</i>
   <i name="EDIFFG">      0.00001000</i>
   <i type="int" name="NFREE">     1</i>
   <i name="POTIM">      0.50000000</i>
   <i name="SMASS">     -3.00000000</i>
   <i name="SCALEE">      1.00000000</i>
  </separator>
  <separator name="ionic md" >
   <i name="TEBEG">      0.00010000</i>
   <i name="TEEND">      0.00010000</i>
   <i type="int" name="NBLOCK">     1</i>
   <i type="int" name="KBLOCK">  1000</i>
   <i type="int" name="NPACO">   256</i>
   <i name="APACO">     16.00000000</i>
  </separator>
  <separator name="symmetry" >
   <i type="int" name="ISYM">     0</i>
   <i name="SYMPREC">      0.00001000</i>
  </separator>
  <separator name="dos" >
   <i type="logical" name="LORBIT"> F  </i>
   <v name="RWIGS">     -1.00000000     -1.00000000</v>
   <i type="int" name="NEDOS">   301</i>
   <i name="EMIN">     10.00000000</i>
   <i name="EMAX">    -10.00000000</i>
   <i name="EFERMI">      0.00000000</i>
  </separator>
  <separator name="writing" >
   <i type="int" name="NWRITE">     3</i>
   <i type="logical" name="LWAVE"> F  </i>
   <i type="logical" name="LCHARG"> F  </i>
   <i type="logical" name="LPARD"> F  </i>
   <i type="logical" name="LVTOT"> F  </i>
   <i type="logical" name="LVHAR"> F  </i>
   <i type="logical" name="LELF"> F  </i>
   <i type="logical" name="LOPTICS"> F  </i>
   <v name="STM">      0.00000000      0.00000000      0.00000000      0.00000000      0.00000000      0.00000000      0.00000000</v>
  </separator>
  <separator name="performance" >
   <i type="int" name="NPAR">     8</i>
   <i type="int" name="NSIM">     4</i>
   <i type="int" name="NBLK">    -1</i>
   <i type="logical" name="LPLANE"> T  </i>
   <i type="logical" name="LSCALAPACK"> T  </i>
   <i type="logical" name="LSCAAWARE"> F  </i>
   <i type="logical" name="LSCALU"> F  </i>
   <i type="logical" name="LASYNC"> F  </i>
   <i type="logical" name="LORBITALREAL"> F  </i>
  </separator>
  <separator name="miscellaneous" >
   <i type="int" name="IDIOT">     3</i>
   <i type="logical" name="LMUSIC"> F  </i>
   <v name="POMASS">    127.60000000     95.94000000</v>
   <v name="DARWINR">      0.00000000      0.00000000</v>
   <v name="DARWINV">      1.00000000      1.00000000</v>
   <i type="logical" name="LCORR"> T  </i>
  </separator>
  <i type="logical" name="GGA_COMPAT"> T  </i>
  <i type="logical" name="LBERRY"> F  </i>
  <i type="int" name="ICORELEVEL">     0</i>
  <i type="logical" name="LDAU"> F  </i>
  <i type="int" name="I_CONSTRAINED_M">     0</i>
  <separator name="electronic exchange-correlation" >
   <i type="string" name="GGA">--</i>
   <i type="int" name="VOSKOWN">     0</i>
   <i type="logical" name="LHFCALC"> F  </i>
   <i type="string" name="PRECFOCK"></i>
   <i type="logical" name="LSYMGRAD"> F  </i>
   <i type="logical" name="LHFONE"> F  </i>
   <i type="logical" name="LRHFCALC"> F  </i>
   <i type="logical" name="LTHOMAS"> F  </i>
   <i type="logical" name="LMODELHF"> F  </i>
   <i name="ENCUT4O">     -1.00000000</i>
   <i type="int" name="EXXOEP">     0</i>
   <i type="int" name="FOURORBIT">     0</i>
   <i name="AEXX">      0.00000000</i>
   <i name="HFALPHA">      0.00000000</i>
   <i name="MCALPHA">      0.00000000</i>
   <i name="ALDAX">      1.00000000</i>
   <i name="AGGAX">      1.00000000</i>
   <i name="ALDAC">      1.00000000</i>
   <i name="AGGAC">      1.00000000</i>
   <i type="int" name="NKREDX">     1</i>
   <i type="int" name="NKREDY">     1</i>
   <i type="int" name="NKREDZ">     1</i>
   <i type="logical" name="SHIFTRED"> F  </i>
   <i type="logical" name="ODDONLY"> F  </i>
   <i type="logical" name="EVENONLY"> F  </i>
   <i type="int" name="LMAXFOCK">     0</i>
   <i type="int" name="NMAXFOCKAE">     0</i>
   <i type="logical" name="LFOCKAEDFT"> F  </i>
   <i name="HFSCREEN">      0.00000000</i>
   <i name="HFSCREENC">      0.00000000</i>
   <i type="int" name="NBANDSGWLOW">     0</i>
  </separator>
  <separator name="vdW DFT" >
   <i type="logical" name="LUSE_VDW"> F  </i>
   <i name="Zab_VDW">     -0.84910000</i>
   <i name="PARAM1">      0.12340000</i>
   <i name="PARAM2">      1.00000000</i>
   <i name="PARAM3">      0.00000000</i>
  </separator>
  <separator name="model GW" >
   <i type="int" name="MODEL_GW">     0</i>
   <i name="MODEL_EPS0">     34.93615840</i>
   <i name="MODEL_ALPHA">      1.00000000</i>
  </separator>
  <separator name="linear response parameters" >
   <i type="logical" name="LEPSILON"> F  </i>
   <i type="logical" name="LRPA"> F  </i>
   <i type="logical" name="LNABLA"> F  </i>
   <i type="logical" name="LVEL"> F  </i>
   <i type="int" name="KINTER">     0</i>
   <i name="CSHIFT">      0.10000000</i>
   <i name="OMEGAMAX">     -1.00000000</i>
   <i name="DEG_THRESHOLD">      0.00200000</i>
  </separator>
  <separator name="orbital magnetization" >
   <i type="logical" name="NUCIND"> F  </i>
   <v name="MAGPOS">      0.00000000      0.00000000      0.00000000</v>
   <i type="logical" name="LNICSALL"> T  </i>
   <i type="logical" name="ORBITALMAG"> F  </i>
   <i type="logical" name="LMAGBLOCH"> F  </i>
   <i type="logical" name="LCHIMAG"> F  </i>
   <i type="logical" name="LGAUGE"> T  </i>
   <i type="int" name="MAGATOM">     0</i>
   <v name="MAGDIPOL">      0.00000000      0.00000000      0.00000000</v>
   <v name="AVECCONST">      0.00000000      0.00000000      0.00000000</v>
  </separator>
  <separator name="response functions" >
   <i type="logical" name="LADDER"> F  </i>
   <i type="logical" name="LFXC"> F  </i>
   <i type="logical" name="LHARTREE"> T  </i>
   <i type="int" name="IBSE">     0</i>
   <i type="logical" name="LTCTE"> F  </i>
   <i type="logical" name="LTETE"> F  </i>
   <i type="logical" name="LTRIPLET"> F  </i>
   <i type="logical" name="LFXCEPS"> F  </i>
   <i type="logical" name="LFXHEG"> F  </i>
   <i type="logical" name="L2ORDER"> F  </i>
   <i type="logical" name="LUSEW"> F  </i>
   <i name="ENCUTGW">     -2.00000000</i>
   <i name="ENCUTGWSOFT">     -2.00000000</i>
   <i name="ENCUTLF">     -1.00000000</i>
   <i type="int" name="LMAXMP2">    -1</i>
   <i name="SCISSOR">      0.00000000</i>
   <i type="int" name="NOMEGA">     0</i>
   <i type="int" name="NOMEGAR">     0</i>
   <i type="int" name="NBANDSGW">    -1</i>
   <i type="int" name="NBANDSO">    -1</i>
   <i type="int" name="NBANDSV">    -1</i>
   <i type="int" name="NELM">     1</i>
   <i type="int" name="DIM">     3</i>
   <i type="int" name="ANTIRES">     0</i>
   <i name="OMEGAMAX">    -30.00000000</i>
   <i name="OMEGAMIN">    -30.00000000</i>
   <i name="OMEGATL">   -200.00000000</i>
   <i type="int" name="OMEGAGRID">     0</i>
   <i name="CSHIFT">     -0.10000000</i>
   <i type="logical" name="SELFENERGY"> F  </i>
   <i type="logical" name="LSPECTRAL"> F  </i>
   <i type="logical" name="ODDONLYGW"> F  </i>
   <i type="logical" name="EVENONLYGW"> F  </i>
   <i type="int" name="NKREDLFX">     1</i>
   <i type="int" name="NKREDLFY">     1</i>
   <i type="int" name="NKREDLFZ">     1</i>
   <i type="int" name="MAXMEM">  1800</i>
   <i type="int" name="TELESCOPE">     0</i>
   <i type="int" name="TAUPAR">     1</i>
  </separator>
  <separator name="External order field" >
   <i name="OFIELD_KAPPA">      0.00000000</i>
   <v name="OFIELD_K">      0.00000000      0.00000000      0.00000000</v>
   <i name="OFIELD_Q6_NEAR">      0.00000000</i>
   <i name="OFIELD_Q6_FAR">      0.00000000</i>
   <i name="OFIELD_A">      0.00000000</i>
  </separator>
 </parameters>
 <atominfo>
  <atoms>       6 </atoms>
  <types>       2 </types>
  <array name="atoms" >
   <dimension dim="1">ion</dimension>
   <field type="string">element</field>
   <field type="int">atomtype</field>
   <set>
    <rc><c>Te</c><c>   1</c></rc>
    <rc><c>Te</c><c>   1</c></rc>
    <rc><c>Te</c><c>   1</c></rc>
    <rc><c>Te</c><c>   1</c></rc>
    <rc><c>Mo</c><c>   2</c></rc>
    <rc><c>Mo</c><c>   2</c></rc>
   </set>
  </array>
  <array name="atomtypes" >
   <dimension dim="1">type</dimension>
   <field type="int">atomspertype</field>
   <field type="string">element</field>
   <field>mass</field>
   <field>valence</field>
   <field type="string">pseudopotential</field>
   <set>
    <rc><c>   4</c><c>Te</c><c>    127.60000000</c><c>      6.00000000</c><c>  PAW_PBE Te 08Apr2002                  </c></rc>
    <rc><c>   2</c><c>Mo</c><c>     95.94000000</c><c>      6.00000000</c><c>  PAW_PBE Mo 08Apr2002                  </c></rc>
   </set>
  </array>
 </atominfo>
 <structure name="initialpos" >
  <crystal>
   <varray name="basis" >
    <v>       3.55100000       0.00000000       0.00000000 </v>
    <v>       0.00000000       6.14900000       0.00000000 </v>
    <v>       0.00000000       0.00000000      16.00000000 </v>
   </varray>
   <i name="volume">    349.36158400 </i>
   <varray name="rec_basis" >
    <v>       0.28161081       0.00000000       0.00000000 </v>
    <v>       0.00000000       0.16262807       0.00000000 </v>
    <v>       0.00000000       0.00000000       0.06250000 </v>
   </varray>
  </crystal>
  <varray name="positions" >
   <v>       0.00000000       0.66665962       0.11282875 </v>
   <v>       0.00000000       0.66665962       0.88717125 </v>
   <v>       0.50000000       0.16665799       0.11282750 </v>
   <v>       0.50000000       0.16665799       0.88717250 </v>
   <v>       0.50000000       0.50001464       0.00000000 </v>
   <v>       0.00000000       0.00000813       0.00000000 </v>
  </varray>
 </structure>
 <calculation>
  <scstep>
   <time name="dav">    3.35    3.35</time>
   <time name="total">    3.39    3.40</time>
   <energy>
    <i name="alphaZ">     25.36157480 </i>
    <i name="ewald">   1695.32331395 </i>
    <i name="hartreedc">  -2977.11215032 </i>
    <i name="XCdc">   -233.75808350 </i>
    <i name="pawpsdc">   1362.14282323 </i>
    <i name="pawaedc">  -1065.87210056 </i>
    <i name="eentropy">     -0.02014947 </i>
    <i name="bandstr">     53.08140882 </i>
    <i name="atom">   1328.10454569 </i>
    <i name="e_fr_energy">    187.25118263 </i>
    <i name="e_wo_entrp">    187.27133211 </i>
    <i name="e_0_energy">    187.26125737 </i>
   </energy>
  </scstep>
  <scstep>
   <time name="dav">    3.86    3.86</time>
   <time name="total">    3.92    3.92</time>
   <energy>
    <i name="e_fr_energy">    -17.93511925 </i>
    <i name="e_wo_entrp">    -17.93288963 </i>
    <i name="e_0_energy">    -17.93400444 </i>
   </energy>
  </scstep>
  <scstep>
   <time name="dav">    3.58    3.57</time>
   <time name="total">    3.63    3.63</time>
   <energy>
    <i name="e_fr_energy">    -36.80243526 </i>
    <i name="e_wo_entrp">    -36.79983307 </i>
    <i name="e_0_energy">    -36.80113417 </i>
   </energy>
  </scstep>
  <scstep>
   <time name="dav">    4.05    4.05</time>
   <time name="total">    4.10    4.10</time>
   <energy>
    <i name="e_fr_energy">    -37.48866616 </i>
    <i name="e_wo_entrp">    -37.48607937 </i>
    <i name="e_0_energy">    -37.48737276 </i>
   </energy>
  </scstep>
  <scstep>
   <time name="dav">    3.89    3.91</time>
   <time name="total">    4.05    4.07</time>
   <energy>
    <i name="e_fr_energy">    -37.49877915 </i>
    <i name="e_wo_entrp">    -37.49619260 </i>
    <i name="e_0_energy">    -37.49748587 </i>
   </energy>
  </scstep>
  <scstep>
   <time name="dav">    3.52    3.52</time>
   <time name="total">    3.72    3.72</time>
   <energy>
    <i name="e_fr_energy">    -36.66800919 </i>
    <i name="e_wo_entrp">    -36.66411970 </i>
    <i name="e_0_energy">    -36.66606444 </i>
   </energy>
  </scstep>
  <scstep>
   <time name="dav">    3.46    3.46</time>
   <time name="total">    3.66    3.66</time>
   <energy>
    <i name="e_fr_energy">    -36.63194193 </i>
    <i name="e_wo_entrp">    -36.62926301 </i>
    <i name="e_0_energy">    -36.63060247 </i>
   </energy>
  </scstep>
  <scstep>
   <time name="dav">    4.23    4.26</time>
   <time name="total">    4.43    4.47</time>
   <energy>
    <i name="e_fr_energy">    -36.09368713 </i>
    <i name="e_wo_entrp">    -36.09071647 </i>
    <i name="e_0_energy">    -36.09220180 </i>
   </energy>
  </scstep>
  <scstep>
   <time name="dav">    3.78    3.78</time>
   <time name="total">    4.03    4.03</time>
   <energy>
    <i name="e_fr_energy">    -36.06745405 </i>
    <i name="e_wo_entrp">    -36.06426757 </i>
    <i name="e_0_energy">    -36.06586081 </i>
   </energy>
  </scstep>
  <scstep>
   <time name="dav">    3.72    3.72</time>
   <time name="total">    3.92    3.92</time>
   <energy>
    <i name="e_fr_energy">    -36.06285333 </i>
    <i name="e_wo_entrp">    -36.05974019 </i>
    <i name="e_0_energy">    -36.06129676 </i>
   </energy>
  </scstep>
  <scstep>
   <time name="dav">    3.74    3.74</time>
   <time name="total">    3.94    3.94</time>
   <energy>
    <i name="e_fr_energy">    -36.06212086 </i>
    <i name="e_wo_entrp">    -36.05897154 </i>
    <i name="e_0_energy">    -36.06054620 </i>
   </energy>
  </scstep>
  <scstep>
   <time name="dav">    3.73    3.73</time>
   <time name="total">    3.93    3.93</time>
   <energy>
    <i name="e_fr_energy">    -36.06162929 </i>
    <i name="e_wo_entrp">    -36.05850067 </i>
    <i name="e_0_energy">    -36.06006498 </i>
   </energy>
  </scstep>
  <scstep>
   <time name="dav">    3.98    4.01</time>
   <time name="total">    4.18    4.21</time>
   <energy>
    <i name="e_fr_energy">    -36.06153204 </i>
    <i name="e_wo_entrp">    -36.05840462 </i>
    <i name="e_0_energy">    -36.05996833 </i>
   </energy>
  </scstep>
  <scstep>
   <time name="dav">    3.34    3.34</time>
   <time name="total">    3.54    3.54</time>
   <energy>
    <i name="e_fr_energy">    -36.06113859 </i>
    <i name="e_wo_entrp">    -36.05801304 </i>
    <i name="e_0_energy">    -36.05957581 </i>
   </energy>
  </scstep>
  <scstep>
   <time name="dav">    3.81    3.82</time>
   <time name="total">    4.01    4.03</time>
   <energy>
    <i name="e_fr_energy">    -36.06118010 </i>
    <i name="e_wo_entrp">    -36.05805783 </i>
    <i name="e_0_energy">    -36.05961896 </i>
   </energy>
  </scstep>
  <scstep>
   <time name="dav">    3.38    3.38</time>
   <time name="total">    3.57    3.57</time>
   <energy>
    <i name="e_fr_energy">    -36.06133780 </i>
    <i name="e_wo_entrp">    -36.05821609 </i>
    <i name="e_0_energy">    -36.05977695 </i>
   </energy>
  </scstep>
  <scstep>
   <time name="dav">    3.55    3.55</time>
   <time name="total">    3.75    3.75</time>
   <energy>
    <i name="e_fr_energy">    -36.06147807 </i>
    <i name="e_wo_entrp">    -36.05835592 </i>
    <i name="e_0_energy">    -36.05991699 </i>
   </energy>
  </scstep>
  <scstep>
   <time name="dav">    3.60    3.60</time>
   <time name="total">    3.80    3.80</time>
   <energy>
    <i name="e_fr_energy">    -36.06158154 </i>
    <i name="e_wo_entrp">    -36.05845843 </i>
    <i name="e_0_energy">    -36.06001998 </i>
   </energy>
  </scstep>
  <scstep>
   <time name="dav">    2.89    2.89</time>
   <time name="total">    3.09    3.09</time>
   <energy>
    <i name="e_fr_energy">    -36.06165284 </i>
    <i name="e_wo_entrp">    -36.05852945 </i>
    <i name="e_0_energy">    -36.06009115 </i>
   </energy>
  </scstep>
  <scstep>
   <time name="dav">    2.75    2.76</time>
   <time name="total">    2.95    2.95</time>
   <energy>
    <i name="e_fr_energy">    -36.06166667 </i>
    <i name="e_wo_entrp">    -36.05854325 </i>
    <i name="e_0_energy">    -36.06010496 </i>
   </energy>
  </scstep>
  <scstep>
   <time name="dav">    2.71    2.71</time>
   <time name="total">    2.91    2.91</time>
   <energy>
    <i name="e_fr_energy">    -36.06166961 </i>
    <i name="e_wo_entrp">    -36.05854629 </i>
    <i name="e_0_energy">    -36.06010795 </i>
   </energy>
  </scstep>
  <scstep>
   <time name="dav">    2.52    2.55</time>
   <time name="total">    2.61    2.63</time>
   <energy>
    <i name="alphaZ">     25.36157480 </i>
    <i name="ewald">   1695.32331395 </i>
    <i name="hartreedc">  -2994.15004315 </i>
    <i name="XCdc">   -232.33527445 </i>
    <i name="pawpsdc">   2731.92551445 </i>
    <i name="pawaedc">  -2438.15774129 </i>
    <i name="eentropy">     -0.00312323 </i>
    <i name="bandstr">   -152.13043697 </i>
    <i name="atom">   1328.10454569 </i>
    <i name="e_fr_energy">    -36.06167019 </i>
    <i name="e_wo_entrp">    -36.05854696 </i>
    <i name="e_0_energy">    -36.06010858 </i>
   </energy>
  </scstep>
  <structure>
   <crystal>
    <varray name="basis" >
     <v>       3.55100000       0.00000000       0.00000000 </v>
     <v>       0.00000000       6.14900000       0.00000000 </v>
     <v>       0.00000000       0.00000000      16.00000000 </v>
    </varray>
    <i name="volume">    349.36158400 </i>
    <varray name="rec_basis" >
     <v>       0.28161081       0.00000000       0.00000000 </v>
     <v>       0.00000000       0.16262807       0.00000000 </v>
     <v>       0.00000000       0.00000000       0.06250000 </v>
    </varray>
   </crystal>
   <varray name="positions" >
    <v>       0.00000000       0.66665962       0.11282875 </v>
    <v>       0.00000000       0.66665962       0.88717125 </v>
    <v>       0.50000000       0.16665799       0.11282750 </v>
    <v>       0.50000000       0.16665799       0.88717250 </v>
    <v>       0.50000000       0.50001464       0.00000000 </v>
    <v>       0.00000000       0.00000813       0.00000000 </v>
   </varray>
  </structure>
  <varray name="forces" >
   <v>       0.00000000      -0.00004590       0.00886163 </v>
   <v>       0.00000002      -0.00004597      -0.00886176 </v>
   <v>      -0.00000006       0.00008255       0.00884925 </v>
   <v>      -0.00000009       0.00008252      -0.00884942 </v>
   <v>       0.00000012      -0.00021946       0.00000021 </v>
   <v>       0.00000000       0.00014625       0.00000009 </v>
  </varray>
  <varray name="stress" >
   <v>      -1.16543447      -0.00000034      -0.00000026 </v>
   <v>      -0.00000034      -1.07244029      -0.00000085 </v>
   <v>      -0.00000016      -0.00000094      -0.69757021 </v>
  </varray>
  <energy>
   <i name="e_fr_energy">    -36.06167019 </i>
   <i name="e_wo_entrp">    -36.06010858 </i>
   <i name="e_0_energy">     -0.00312323 </i>
  </energy>
  <time name="totalsc">   82.89   83.06</time>
 </calculation>
 <calculation>
  <scstep>
   <time name="dav">    3.10    3.10</time>
   <time name="total">    3.25    3.25</time>
   <energy>
    <i name="alphaZ">     25.36157480 </i>
    <i name="ewald">   1694.68109362 </i>
    <i name="hartreedc">  -2993.53212877 </i>
    <i name="XCdc">   -232.33878037 </i>
    <i name="pawpsdc">   2731.93576440 </i>
    <i name="pawaedc">  -2438.16799846 </i>
    <i name="eentropy">     -0.00312399 </i>
    <i name="bandstr">   -152.10262598 </i>
    <i name="atom">   1328.10454569 </i>
    <i name="e_fr_energy">    -36.06167904 </i>
    <i name="e_wo_entrp">    -36.05855505 </i>
    <i name="e_0_energy">    -36.06011704 </i>
   </energy>
  </scstep>
  <scstep>
   <time name="dav">    3.27    3.27</time>
   <time name="total">    3.47    3.48</time>
   <energy>
    <i name="e_fr_energy">    -36.06167952 </i>
    <i name="e_wo_entrp">    -36.05855480 </i>
    <i name="e_0_energy">    -36.06011716 </i>
   </energy>
  </scstep>
  <scstep>
   <time name="dav">    2.34    2.34</time>
   <time name="total">    2.43    2.43</time>
   <energy>
    <i name="alphaZ">     25.36157480 </i>
    <i name="ewald">   1694.68109362 </i>
    <i name="hartreedc">  -2993.53210716 </i>
    <i name="XCdc">   -232.33847492 </i>
    <i name="pawpsdc">   2731.26516537 </i>
    <i name="pawaedc">  -2437.49630495 </i>
    <i name="eentropy">     -0.00312442 </i>
    <i name="bandstr">   -152.10404716 </i>
    <i name="atom">   1328.10454569 </i>
    <i name="e_fr_energy">    -36.06167912 </i>
    <i name="e_wo_entrp">    -36.05855470 </i>
    <i name="e_0_energy">    -36.06011691 </i>
   </energy>
  </scstep>
  <structure>
   <crystal>
    <varray name="basis" >
     <v>       3.55100000       0.00000000       0.00000000 </v>
     <v>       0.00000000       6.14900000       0.00000000 </v>
     <v>       0.00000000       0.00000000      16.00000000 </v>
    </varray>
    <i name="volume">    349.36158400 </i>
    <varray name="rec_basis" >
     <v>       0.28161081       0.00000000       0.00000000 </v>
     <v>       0.00000000       0.16262807       0.00000000 </v>
     <v>       0.00000000       0.00000000       0.06250000 </v>
    </varray>
   </crystal>
   <varray name="positions" >
    <v>       0.00000000       0.66665926       0.11285547 </v>
    <v>       0.00000000       0.66665926       0.88714453 </v>
    <v>       0.50000000       0.16665864       0.11285418 </v>
    <v>       0.50000000       0.16665864       0.88714582 </v>
    <v>       0.50000000       0.50001291       0.00000000 </v>
    <v>       0.00000000       0.00000928       0.00000000 </v>
   </varray>
  </structure>
  <varray name="forces" >
   <v>      -0.00000002      -0.00003685       0.00292423 </v>
   <v>       0.00000004      -0.00003704      -0.00292400 </v>
   <v>       0.00000006       0.00003489       0.00303316 </v>
   <v>       0.00000003       0.00003506      -0.00303301 </v>
   <v>      -0.00000009      -0.00004741      -0.00000017 </v>
   <v>      -0.00000001       0.00005136      -0.00000022 </v>
  </varray>
  <varray name="stress" >
   <v>      -1.24681703       0.00000081      -0.00000008 </v>
   <v>       0.00000083      -1.15357352       0.00000004 </v>
   <v>      -0.00000022       0.00000008      -0.89304485 </v>
  </varray>
  <energy>
   <i name="e_fr_energy">    -36.06167912 </i>
   <i name="e_wo_entrp">    -36.06011691 </i>
   <i name="e_0_energy">     -0.00312442 </i>
  </energy>
  <time name="totalsc">   10.81   10.83</time>
 </calculation>
 <calculation>
  <scstep>
   <time name="dav">    3.32    3.32</time>
   <time name="total">    3.47    3.47</time>
   <energy>
    <i name="alphaZ">     25.36157480 </i>
    <i name="ewald">   1694.35563545 </i>
    <i name="hartreedc">  -2993.21864816 </i>
    <i name="XCdc">   -232.34007992 </i>
    <i name="pawpsdc">   2731.08020384 </i>
    <i name="pawaedc">  -2437.31071996 </i>
    <i name="eentropy">     -0.00312500 </i>
    <i name="bandstr">   -152.09106610 </i>
    <i name="atom">   1328.10454569 </i>
    <i name="e_fr_energy">    -36.06167935 </i>
    <i name="e_wo_entrp">    -36.05855436 </i>
    <i name="e_0_energy">    -36.06011685 </i>
   </energy>
  </scstep>
  <scstep>
   <time name="dav">    3.20    3.20</time>
   <time name="total">    3.28    3.29</time>
   <energy>
    <i name="alphaZ">     25.36157480 </i>
    <i name="ewald">   1694.35563545 </i>
    <i name="hartreedc">  -2993.22043955 </i>
    <i name="XCdc">   -232.33999063 </i>
    <i name="pawpsdc">   2730.76971852 </i>
    <i name="pawaedc">  -2436.99982008 </i>
    <i name="eentropy">     -0.00312506 </i>
    <i name="bandstr">   -152.08977849 </i>
    <i name="atom">   1328.10454569 </i>
    <i name="e_fr_energy">    -36.06167935 </i>
    <i name="e_wo_entrp">    -36.05855429 </i>
    <i name="e_0_energy">    -36.06011682 </i>
   </energy>
  </scstep>
  <structure>
   <crystal>
    <varray name="basis" >
     <v>       3.55100000       0.00000000       0.00000000 </v>
     <v>       0.00000000       6.14900000       0.00000000 </v>
     <v>       0.00000000       0.00000000      16.00000000 </v>
    </varray>
    <i name="volume">    349.36158400 </i>
    <varray name="rec_basis" >
     <v>       0.28161081       0.00000000       0.00000000 </v>
     <v>       0.00000000       0.16262807       0.00000000 </v>
     <v>       0.00000000       0.00000000       0.06250000 </v>
    </varray>
   </crystal>
   <varray name="positions" >
    <v>       0.00000000       0.66665908       0.11286901 </v>
    <v>       0.00000000       0.66665908       0.88713099 </v>
    <v>       0.50000000       0.16665897       0.11286770 </v>
    <v>       0.50000000       0.16665897       0.88713229 </v>
    <v>       0.50000000       0.50001204       0.00000000 </v>
    <v>       0.00000000       0.00000986       0.00000000 </v>
   </varray>
  </structure>
  <varray name="forces" >
   <v>       0.00000005      -0.00012333       0.00007298 </v>
   <v>       0.00000001      -0.00012350      -0.00007243 </v>
   <v>       0.00000001       0.00011007       0.00034019 </v>
   <v>       0.00000002       0.00011020      -0.00033984 </v>
   <v>      -0.00000016       0.00002591      -0.00000066 </v>
   <v>       0.00000008       0.00000066      -0.00000024 </v>
  </varray>
  <varray name="stress" >
   <v>      -1.27913608       0.00000075       0.00000055 </v>
   <v>       0.00000064      -1.18568803      -0.00000059 </v>
   <v>       0.00000043      -0.00000078      -0.99010099 </v>
  </varray>
  <energy>
   <i name="e_fr_energy">    -36.06167935 </i>
   <i name="e_wo_entrp">    -36.06011682 </i>
   <i name="e_0_energy">     -0.00312506 </i>
  </energy>
  <time name="totalsc">    8.23    8.25</time>
  <eigenvalues>
   <array>
    <dimension dim="1">band</dimension>
    <dimension dim="2">kpoint</dimension>
    <dimension dim="3">spin</dimension>
    <field>eigene</field>
    <field>occ</field>
    <set>
     <set comment="spin 1">
      <set comment="kpoint 1">
       <r>  -12.4655    1.0000 </r>
       <r>  -11.5675    1.0000 </r>
       <r>  -10.5655    1.0000 </r>
       <r>  -10.2340    1.0000 </r>
       <r>   -5.2603    1.0000 </r>
       <r>   -4.8247    1.0000 </r>
       <r>   -4.4262    1.0000 </r>
       <r>   -3.2199    1.0000 </r>
       <r>   -2.2222    1.0000 </r>
       <r>   -1.6430    1.0000 </r>
       <r>   -1.6086    1.0000 </r>
       <r>   -1.5750    1.0000 </r>
       <r>   -1.5287    1.0000 </r>
       <r>   -0.8269    1.0000 </r>
       <r>   -0.7969    1.0000 </r>
       <r>   -0.7292    1.0000 </r>
       <r>   -0.3896    1.0000 </r>
       <r>   -0.2219    0.9995 </r>
       <r>    1.4526    0.0000 </r>
       <r>    1.7800    0.0000 </r>
       <r>    3.1033    0.0000 </r>
       <r>    3.1666    0.0000 </r>
       <r>    3.3374    0.0000 </r>
       <r>    3.3643    0.0000 </r>
      </set>
      <set comment="kpoint 2">
       <r>  -12.4041    1.0000 </r>
       <r>  -11.5226    1.0000 </r>
       <r>  -10.5347    1.0000 </r>
       <r>  -10.2093    1.0000 </r>
       <r>   -5.1859    1.0000 </r>
       <r>   -4.7563    1.0000 </r>
       <r>   -4.4087    1.0000 </r>
       <r>   -3.1968    1.0000 </r>
       <r>   -2.3309    1.0000 </r>
       <r>   -1.7722    1.0000 </r>
       <r>   -1.7480    1.0000 </r>
       <r>   -1.5231    1.0000 </r>
       <r>   -1.5122    1.0000 </r>
       <r>   -1.1218    1.0000 </r>
       <r>   -0.9160    1.0000 </r>
       <r>   -0.7228    1.0000 </r>
       <r>   -0.3954    1.0000 </r>
       <r>   -0.1780    0.9987 </r>
       <r>    1.4790    0.0000 </r>
       <r>    1.8174    0.0000 </r>
       <r>    2.8329    0.0000 </r>
       <r>    2.9715    0.0000 </r>
       <r>    3.1847    0.0000 </r>
       <r>    3.2195    0.0000 </r>
      </set>
      <set comment="kpoint 3">
       <r>  -12.2830    1.0000 </r>
       <r>  -11.4343    1.0000 </r>
       <r>  -10.4779    1.0000 </r>
       <r>  -10.1640    1.0000 </r>
       <r>   -5.0397    1.0000 </r>
       <r>   -4.6244    1.0000 </r>
       <r>   -4.3818    1.0000 </r>
       <r>   -3.1613    1.0000 </r>
       <r>   -2.4991    1.0000 </r>
       <r>   -2.0069    1.0000 </r>
       <r>   -1.9704    1.0000 </r>
       <r>   -1.7012    1.0000 </r>
       <r>   -1.5078    1.0000 </r>
       <r>   -1.4267    1.0000 </r>
       <r>   -1.1099    1.0000 </r>
       <r>   -0.6364    1.0000 </r>
       <r>   -0.4191    1.0000 </r>
       <r>   -0.1466    0.9974 </r>
       <r>    1.4617    0.0000 </r>
       <r>    1.9395    0.0000 </r>
       <r>    2.4675    0.0000 </r>
       <r>    2.4899    0.0000 </r>
       <r>    2.6989    0.0000 </r>
       <r>    2.9800    0.0000 </r>
      </set>
      <set comment="kpoint 4">
       <r>  -12.1061    1.0000 </r>
       <r>  -11.3058    1.0000 </r>
       <r>  -10.4053    1.0000 </r>
       <r>  -10.1069    1.0000 </r>
       <r>   -4.8280    1.0000 </r>
       <r>   -4.4399    1.0000 </r>
       <r>   -4.3607    1.0000 </r>
       <r>   -3.1457    1.0000 </r>
       <r>   -2.6694    1.0000 </r>
       <r>   -2.3530    1.0000 </r>
       <r>   -2.3119    1.0000 </r>
       <r>   -2.1952    1.0000 </r>
       <r>   -1.5323    1.0000 </r>
       <r>   -1.4191    1.0000 </r>
       <r>   -1.3053    1.0000 </r>
       <r>   -0.5863    1.0000 </r>
       <r>   -0.4766    1.0000 </r>
       <r>   -0.1002    0.9923 </r>
       <r>    1.3767    0.0000 </r>
       <r>    2.0482    0.0000 </r>
       <r>    2.1412    0.0000 </r>
       <r>    2.1728    0.0000 </r>
       <r>    2.3080    0.0000 </r>
       <r>    2.6241    0.0000 </r>
      </set>
      <set comment="kpoint 5">
       <r>  -11.8799    1.0000 </r>
       <r>  -11.1421    1.0000 </r>
       <r>  -10.3329    1.0000 </r>
       <r>  -10.0510    1.0000 </r>
       <r>   -4.5658    1.0000 </r>
       <r>   -4.3605    1.0000 </r>
       <r>   -4.2249    1.0000 </r>
       <r>   -3.2783    1.0000 </r>
       <r>   -2.7933    1.0000 </r>
       <r>   -2.7415    1.0000 </r>
       <r>   -2.7384    1.0000 </r>
       <r>   -2.4351    1.0000 </r>
       <r>   -1.8161    1.0000 </r>
       <r>   -1.5798    1.0000 </r>
       <r>   -1.2167    1.0000 </r>
       <r>   -0.5980    1.0000 </r>
       <r>   -0.5524    1.0000 </r>
       <r>   -0.0268    0.9594 </r>
       <r>    1.2583    0.0000 </r>
       <r>    1.7104    0.0000 </r>
       <r>    2.0239    0.0000 </r>
       <r>    2.0620    0.0000 </r>
       <r>    2.2571    0.0000 </r>
       <r>    2.3627    0.0000 </r>
      </set>
      <set comment="kpoint 6">
       <r>  -11.6138    1.0000 </r>
       <r>  -10.9509    1.0000 </r>
       <r>  -10.2835    1.0000 </r>
       <r>  -10.0138    1.0000 </r>
       <r>   -4.3774    1.0000 </r>
       <r>   -4.3116    1.0000 </r>
       <r>   -4.0320    1.0000 </r>
       <r>   -3.6034    1.0000 </r>
       <r>   -3.1006    1.0000 </r>
       <r>   -2.8481    1.0000 </r>
       <r>   -2.8314    1.0000 </r>
       <r>   -2.7198    1.0000 </r>
       <r>   -2.2087    1.0000 </r>
       <r>   -1.6226    1.0000 </r>
       <r>   -1.2856    1.0000 </r>
       <r>   -0.6791    1.0000 </r>
       <r>   -0.5523    1.0000 </r>
       <r>    0.0441    0.8202 </r>
       <r>    1.1619    0.0000 </r>
       <r>    1.4706    0.0000 </r>
       <r>    1.9549    0.0000 </r>
       <r>    1.9744    0.0000 </r>
       <r>    2.0105    0.0000 </r>
       <r>    2.5255    0.0000 </r>
      </set>
      <set comment="kpoint 7">
       <r>  -11.3220    1.0000 </r>
       <r>  -10.7429    1.0000 </r>
       <r>  -10.2837    1.0000 </r>
       <r>  -10.0140    1.0000 </r>
       <r>   -4.3771    1.0000 </r>
       <r>   -4.3113    1.0000 </r>
       <r>   -4.0065    1.0000 </r>
       <r>   -3.6036    1.0000 </r>
       <r>   -3.2711    1.0000 </r>
       <r>   -3.0980    1.0000 </r>
       <r>   -2.8479    1.0000 </r>
       <r>   -2.8314    1.0000 </r>
       <r>   -2.4814    1.0000 </r>
       <r>   -1.6228    1.0000 </r>
       <r>   -1.5455    1.0000 </r>
       <r>   -0.8224    1.0000 </r>
       <r>   -0.4628    1.0000 </r>
       <r>    0.0442    0.8198 </r>
       <r>    1.1617    0.0000 </r>
       <r>    1.3311    0.0000 </r>
       <r>    1.8216    0.0000 </r>
       <r>    1.9550    0.0000 </r>
       <r>    2.0749    0.0000 </r>
       <r>    2.5251    0.0000 </r>
      </set>
      <set comment="kpoint 8">
       <r>  -11.0238    1.0000 </r>
       <r>  -10.5324    1.0000 </r>
       <r>  -10.3573    1.0000 </r>
       <r>  -10.0666    1.0000 </r>
       <r>   -4.4722    1.0000 </r>
       <r>   -4.3123    1.0000 </r>
       <r>   -4.2058    1.0000 </r>
       <r>   -3.5120    1.0000 </r>
       <r>   -3.2747    1.0000 </r>
       <r>   -3.1869    1.0000 </r>
       <r>   -2.8231    1.0000 </r>
       <r>   -2.8228    1.0000 </r>
       <r>   -2.6390    1.0000 </r>
       <r>   -1.9099    1.0000 </r>
       <r>   -1.5515    1.0000 </r>
       <r>   -1.0099    1.0000 </r>
       <r>   -0.3755    1.0000 </r>
       <r>   -0.0525    0.9772 </r>
       <r>    1.2769    0.0000 </r>
       <r>    1.3542    0.0000 </r>
       <r>    1.7455    0.0000 </r>
       <r>    2.0195    0.0000 </r>
       <r>    2.1431    0.0000 </r>
       <r>    2.3118    0.0000 </r>
      </set>
      <set comment="kpoint 9">
       <r>  -10.7449    1.0000 </r>
       <r>  -10.5144    1.0000 </r>
       <r>  -10.3373    1.0000 </r>
       <r>  -10.1767    1.0000 </r>
       <r>   -4.5176    1.0000 </r>
       <r>   -4.4153    1.0000 </r>
       <r>   -4.1486    1.0000 </r>
       <r>   -3.8767    1.0000 </r>
       <r>   -3.0555    1.0000 </r>
       <r>   -3.0134    1.0000 </r>
       <r>   -2.7869    1.0000 </r>
       <r>   -2.7317    1.0000 </r>
       <r>   -2.7045    1.0000 </r>
       <r>   -2.3213    1.0000 </r>
       <r>   -1.4076    1.0000 </r>
       <r>   -1.2157    1.0000 </r>
       <r>   -0.2961    0.9999 </r>
       <r>   -0.1863    0.9990 </r>
       <r>    1.4300    0.0000 </r>
       <r>    1.4875    0.0000 </r>
       <r>    1.7347    0.0000 </r>
       <r>    1.9834    0.0000 </r>
       <r>    2.1022    0.0000 </r>
       <r>    2.1553    0.0000 </r>
      </set>
      <set comment="kpoint 10">
       <r>  -10.7449    1.0000 </r>
       <r>  -10.5144    1.0000 </r>
       <r>  -10.3373    1.0000 </r>
       <r>  -10.1767    1.0000 </r>
       <r>   -4.5176    1.0000 </r>
       <r>   -4.4153    1.0000 </r>
       <r>   -4.1486    1.0000 </r>
       <r>   -3.8767    1.0000 </r>
       <r>   -3.0555    1.0000 </r>
       <r>   -3.0134    1.0000 </r>
       <r>   -2.7869    1.0000 </r>
       <r>   -2.7317    1.0000 </r>
       <r>   -2.7045    1.0000 </r>
       <r>   -2.3213    1.0000 </r>
       <r>   -1.4076    1.0000 </r>
       <r>   -1.2157    1.0000 </r>
       <r>   -0.2961    0.9999 </r>
       <r>   -0.1863    0.9990 </r>
       <r>    1.4300    0.0000 </r>
       <r>    1.4875    0.0000 </r>
       <r>    1.7347    0.0000 </r>
       <r>    1.9834    0.0000 </r>
       <r>    2.1022    0.0000 </r>
       <r>    2.1553    0.0000 </r>
      </set>
      <set comment="kpoint 11">
       <r>  -11.0238    1.0000 </r>
       <r>  -10.5324    1.0000 </r>
       <r>  -10.3573    1.0000 </r>
       <r>  -10.0666    1.0000 </r>
       <r>   -4.4722    1.0000 </r>
       <r>   -4.3123    1.0000 </r>
       <r>   -4.2058    1.0000 </r>
       <r>   -3.5120    1.0000 </r>
       <r>   -3.2747    1.0000 </r>
       <r>   -3.1869    1.0000 </r>
       <r>   -2.8231    1.0000 </r>
       <r>   -2.8228    1.0000 </r>
       <r>   -2.6390    1.0000 </r>
       <r>   -1.9099    1.0000 </r>
       <r>   -1.5515    1.0000 </r>
       <r>   -1.0099    1.0000 </r>
       <r>   -0.3755    1.0000 </r>
       <r>   -0.0525    0.9772 </r>
       <r>    1.2769    0.0000 </r>
       <r>    1.3542    0.0000 </r>
       <r>    1.7455    0.0000 </r>
       <r>    2.0195    0.0000 </r>
       <r>    2.1431    0.0000 </r>
       <r>    2.3118    0.0000 </r>
      </set>
      <set comment="kpoint 12">
       <r>  -11.3220    1.0000 </r>
       <r>  -10.7429    1.0000 </r>
       <r>  -10.2837    1.0000 </r>
       <r>  -10.0140    1.0000 </r>
       <r>   -4.3771    1.0000 </r>
       <r>   -4.3113    1.0000 </r>
       <r>   -4.0065    1.0000 </r>
       <r>   -3.6036    1.0000 </r>
       <r>   -3.2711    1.0000 </r>
       <r>   -3.0980    1.0000 </r>
       <r>   -2.8479    1.0000 </r>
       <r>   -2.8314    1.0000 </r>
       <r>   -2.4814    1.0000 </r>
       <r>   -1.6228    1.0000 </r>
       <r>   -1.5455    1.0000 </r>
       <r>   -0.8224    1.0000 </r>
       <r>   -0.4628    1.0000 </r>
       <r>    0.0442    0.8198 </r>
       <r>    1.1617    0.0000 </r>
       <r>    1.3311    0.0000 </r>
       <r>    1.8216    0.0000 </r>
       <r>    1.9550    0.0000 </r>
       <r>    2.0749    0.0000 </r>
       <r>    2.5251    0.0000 </r>
      </set>
      <set comment="kpoint 13">
       <r>  -11.6138    1.0000 </r>
       <r>  -10.9509    1.0000 </r>
       <r>  -10.2835    1.0000 </r>
       <r>  -10.0138    1.0000 </r>
       <r>   -4.3774    1.0000 </r>
       <r>   -4.3116    1.0000 </r>
       <r>   -4.0320    1.0000 </r>
       <r>   -3.6034    1.0000 </r>
       <r>   -3.1006    1.0000 </r>
       <r>   -2.8481    1.0000 </r>
       <r>   -2.8314    1.0000 </r>
       <r>   -2.7198    1.0000 </r>
       <r>   -2.2087    1.0000 </r>
       <r>   -1.6226    1.0000 </r>
       <r>   -1.2856    1.0000 </r>
       <r>   -0.6791    1.0000 </r>
       <r>   -0.5523    1.0000 </r>
       <r>    0.0441    0.8202 </r>
       <r>    1.1619    0.0000 </r>
       <r>    1.4706    0.0000 </r>
       <r>    1.9549    0.0000 </r>
       <r>    1.9744    0.0000 </r>
       <r>    2.0105    0.0000 </r>
       <r>    2.5255    0.0000 </r>
      </set>
      <set comment="kpoint 14">
       <r>  -11.8799    1.0000 </r>
       <r>  -11.1421    1.0000 </r>
       <r>  -10.3329    1.0000 </r>
       <r>  -10.0510    1.0000 </r>
       <r>   -4.5658    1.0000 </r>
       <r>   -4.3605    1.0000 </r>
       <r>   -4.2249    1.0000 </r>
       <r>   -3.2783    1.0000 </r>
       <r>   -2.7933    1.0000 </r>
       <r>   -2.7415    1.0000 </r>
       <r>   -2.7384    1.0000 </r>
       <r>   -2.4351    1.0000 </r>
       <r>   -1.8161    1.0000 </r>
       <r>   -1.5798    1.0000 </r>
       <r>   -1.2167    1.0000 </r>
       <r>   -0.5980    1.0000 </r>
       <r>   -0.5524    1.0000 </r>
       <r>   -0.0268    0.9594 </r>
       <r>    1.2583    0.0000 </r>
       <r>    1.7104    0.0000 </r>
       <r>    2.0239    0.0000 </r>
       <r>    2.0620    0.0000 </r>
       <r>    2.2571    0.0000 </r>
       <r>    2.3627    0.0000 </r>
      </set>
      <set comment="kpoint 15">
       <r>  -12.1061    1.0000 </r>
       <r>  -11.3058    1.0000 </r>
       <r>  -10.4053    1.0000 </r>
       <r>  -10.1069    1.0000 </r>
       <r>   -4.8280    1.0000 </r>
       <r>   -4.4399    1.0000 </r>
       <r>   -4.3607    1.0000 </r>
       <r>   -3.1457    1.0000 </r>
       <r>   -2.6694    1.0000 </r>
       <r>   -2.3530    1.0000 </r>
       <r>   -2.3119    1.0000 </r>
       <r>   -2.1952    1.0000 </r>
       <r>   -1.5323    1.0000 </r>
       <r>   -1.4191    1.0000 </r>
       <r>   -1.3053    1.0000 </r>
       <r>   -0.5863    1.0000 </r>
       <r>   -0.4766    1.0000 </r>
       <r>   -0.1002    0.9923 </r>
       <r>    1.3767    0.0000 </r>
       <r>    2.0482    0.0000 </r>
       <r>    2.1412    0.0000 </r>
       <r>    2.1728    0.0000 </r>
       <r>    2.3080    0.0000 </r>
       <r>    2.6241    0.0000 </r>
      </set>
      <set comment="kpoint 16">
       <r>  -12.2830    1.0000 </r>
       <r>  -11.4343    1.0000 </r>
       <r>  -10.4779    1.0000 </r>
       <r>  -10.1640    1.0000 </r>
       <r>   -5.0397    1.0000 </r>
       <r>   -4.6244    1.0000 </r>
       <r>   -4.3818    1.0000 </r>
       <r>   -3.1613    1.0000 </r>
       <r>   -2.4991    1.0000 </r>
       <r>   -2.0069    1.0000 </r>
       <r>   -1.9704    1.0000 </r>
       <r>   -1.7012    1.0000 </r>
       <r>   -1.5078    1.0000 </r>
       <r>   -1.4267    1.0000 </r>
       <r>   -1.1099    1.0000 </r>
       <r>   -0.6364    1.0000 </r>
       <r>   -0.4191    1.0000 </r>
       <r>   -0.1466    0.9974 </r>
       <r>    1.4617    0.0000 </r>
       <r>    1.9395    0.0000 </r>
       <r>    2.4675    0.0000 </r>
       <r>    2.4899    0.0000 </r>
       <r>    2.6989    0.0000 </r>
       <r>    2.9800    0.0000 </r>
      </set>
      <set comment="kpoint 17">
       <r>  -12.4041    1.0000 </r>
       <r>  -11.5226    1.0000 </r>
       <r>  -10.5347    1.0000 </r>
       <r>  -10.2093    1.0000 </r>
       <r>   -5.1859    1.0000 </r>
       <r>   -4.7563    1.0000 </r>
       <r>   -4.4087    1.0000 </r>
       <r>   -3.1968    1.0000 </r>
       <r>   -2.3309    1.0000 </r>
       <r>   -1.7722    1.0000 </r>
       <r>   -1.7480    1.0000 </r>
       <r>   -1.5231    1.0000 </r>
       <r>   -1.5122    1.0000 </r>
       <r>   -1.1218    1.0000 </r>
       <r>   -0.9160    1.0000 </r>
       <r>   -0.7228    1.0000 </r>
       <r>   -0.3954    1.0000 </r>
       <r>   -0.1780    0.9987 </r>
       <r>    1.4790    0.0000 </r>
       <r>    1.8174    0.0000 </r>
       <r>    2.8329    0.0000 </r>
       <r>    2.9715    0.0000 </r>
       <r>    3.2162    0.0000 </r>
       <r>    3.2441    0.0000 </r>
      </set>
      <set comment="kpoint 18">
       <r>  -12.4655    1.0000 </r>
       <r>  -11.5675    1.0000 </r>
       <r>  -10.5655    1.0000 </r>
       <r>  -10.2340    1.0000 </r>
       <r>   -5.2603    1.0000 </r>
       <r>   -4.8247    1.0000 </r>
       <r>   -4.4262    1.0000 </r>
       <r>   -3.2199    1.0000 </r>
       <r>   -2.2222    1.0000 </r>
       <r>   -1.6430    1.0000 </r>
       <r>   -1.6086    1.0000 </r>
       <r>   -1.5750    1.0000 </r>
       <r>   -1.5287    1.0000 </r>
       <r>   -0.8269    1.0000 </r>
       <r>   -0.7969    1.0000 </r>
       <r>   -0.7292    1.0000 </r>
       <r>   -0.3896    1.0000 </r>
       <r>   -0.2219    0.9995 </r>
       <r>    1.4526    0.0000 </r>
       <r>    1.7800    0.0000 </r>
       <r>    3.1033    0.0000 </r>
       <r>    3.1666    0.0000 </r>
       <r>    3.3375    0.0000 </r>
       <r>    3.3742    0.0000 </r>
      </set>
      <set comment="kpoint 19">
       <r>  -12.4450    1.0000 </r>
       <r>  -11.5525    1.0000 </r>
       <r>  -10.6105    1.0000 </r>
       <r>  -10.2631    1.0000 </r>
       <r>   -5.1924    1.0000 </r>
       <r>   -4.8017    1.0000 </r>
       <r>   -4.3693    1.0000 </r>
       <r>   -3.2274    1.0000 </r>
       <r>   -2.2073    1.0000 </r>
       <r>   -1.6894    1.0000 </r>
       <r>   -1.6547    1.0000 </r>
       <r>   -1.5586    1.0000 </r>
       <r>   -1.5185    1.0000 </r>
       <r>   -0.8576    1.0000 </r>
       <r>   -0.7671    1.0000 </r>
       <r>   -0.7595    1.0000 </r>
       <r>   -0.3910    1.0000 </r>
       <r>   -0.2457    0.9997 </r>
       <r>    1.4699    0.0000 </r>
       <r>    1.7524    0.0000 </r>
       <r>    3.0052    0.0000 </r>
       <r>    3.1837    0.0000 </r>
       <r>    3.2013    0.0000 </r>
       <r>    3.3111    0.0000 </r>
      </set>
      <set comment="kpoint 20">
       <r>  -12.3837    1.0000 </r>
       <r>  -11.5077    1.0000 </r>
       <r>  -10.5785    1.0000 </r>
       <r>  -10.2378    1.0000 </r>
       <r>   -5.1214    1.0000 </r>
       <r>   -4.7339    1.0000 </r>
       <r>   -4.3527    1.0000 </r>
       <r>   -3.2020    1.0000 </r>
       <r>   -2.3245    1.0000 </r>
       <r>   -1.8109    1.0000 </r>
       <r>   -1.7933    1.0000 </r>
       <r>   -1.5058    1.0000 </r>
       <r>   -1.4923    1.0000 </r>
       <r>   -1.1401    1.0000 </r>
       <r>   -0.9368    1.0000 </r>
       <r>   -0.7135    1.0000 </r>
       <r>   -0.3983    1.0000 </r>
       <r>   -0.2016    0.9993 </r>
       <r>    1.4910    0.0000 </r>
       <r>    1.7814    0.0000 </r>
       <r>    2.7598    0.0000 </r>
       <r>    2.8684    0.0000 </r>
       <r>    3.1289    0.0000 </r>
       <r>    3.2128    0.0000 </r>
      </set>
      <set comment="kpoint 21">
       <r>  -12.2630    1.0000 </r>
       <r>  -11.4198    1.0000 </r>
       <r>  -10.5192    1.0000 </r>
       <r>  -10.1913    1.0000 </r>
       <r>   -4.9832    1.0000 </r>
       <r>   -4.6032    1.0000 </r>
       <r>   -4.3284    1.0000 </r>
       <r>   -3.1607    1.0000 </r>
       <r>   -2.5009    1.0000 </r>
       <r>   -2.0517    1.0000 </r>
       <r>   -2.0069    1.0000 </r>
       <r>   -1.7064    1.0000 </r>
       <r>   -1.4783    1.0000 </r>
       <r>   -1.4073    1.0000 </r>
       <r>   -1.1048    1.0000 </r>
       <r>   -0.6632    1.0000 </r>
       <r>   -0.4253    1.0000 </r>
       <r>   -0.1721    0.9985 </r>
       <r>    1.4800    0.0000 </r>
       <r>    1.8846    0.0000 </r>
       <r>    2.4134    0.0000 </r>
       <r>    2.4333    0.0000 </r>
       <r>    2.6758    0.0000 </r>
       <r>    2.9668    0.0000 </r>
      </set>
      <set comment="kpoint 22">
       <r>  -12.0869    1.0000 </r>
       <r>  -11.2919    1.0000 </r>
       <r>  -10.4426    1.0000 </r>
       <r>  -10.1320    1.0000 </r>
       <r>   -4.7878    1.0000 </r>
       <r>   -4.4212    1.0000 </r>
       <r>   -4.3131    1.0000 </r>
       <r>   -3.1297    1.0000 </r>
       <r>   -2.6741    1.0000 </r>
       <r>   -2.3980    1.0000 </r>
       <r>   -2.3095    1.0000 </r>
       <r>   -2.2393    1.0000 </r>
       <r>   -1.4987    1.0000 </r>
       <r>   -1.3865    1.0000 </r>
       <r>   -1.2808    1.0000 </r>
       <r>   -0.6451    1.0000 </r>
       <r>   -0.4881    1.0000 </r>
       <r>   -0.1304    0.9962 </r>
       <r>    1.4055    0.0000 </r>
       <r>    1.9966    0.0000 </r>
       <r>    2.0700    0.0000 </r>
       <r>    2.1819    0.0000 </r>
       <r>    2.3006    0.0000 </r>
       <r>    2.6330    0.0000 </r>
      </set>
      <set comment="kpoint 23">
       <r>  -11.8617    1.0000 </r>
       <r>  -11.1291    1.0000 </r>
       <r>  -10.3648    1.0000 </r>
       <r>  -10.0730    1.0000 </r>
       <r>   -4.5602    1.0000 </r>
       <r>   -4.3235    1.0000 </r>
       <r>   -4.2113    1.0000 </r>
       <r>   -3.2158    1.0000 </r>
       <r>   -2.7944    1.0000 </r>
       <r>   -2.7873    1.0000 </r>
       <r>   -2.7455    1.0000 </r>
       <r>   -2.4974    1.0000 </r>
       <r>   -1.7570    1.0000 </r>
       <r>   -1.5480    1.0000 </r>
       <r>   -1.1814    1.0000 </r>
       <r>   -0.6726    1.0000 </r>
       <r>   -0.5702    1.0000 </r>
       <r>   -0.0623    0.9818 </r>
       <r>    1.2969    0.0000 </r>
       <r>    1.6867    0.0000 </r>
       <r>    2.0689    0.0000 </r>
       <r>    2.0695    0.0000 </r>
       <r>    2.2748    0.0000 </r>
       <r>    2.2825    0.0000 </r>
      </set>
      <set comment="kpoint 24">
       <r>  -11.5972    1.0000 </r>
       <r>  -10.9392    1.0000 </r>
       <r>  -10.3084    1.0000 </r>
       <r>  -10.0316    1.0000 </r>
       <r>   -4.3838    1.0000 </r>
       <r>   -4.3554    1.0000 </r>
       <r>   -4.0308    1.0000 </r>
       <r>   -3.4702    1.0000 </r>
       <r>   -3.1436    1.0000 </r>
       <r>   -2.8403    1.0000 </r>
       <r>   -2.8326    1.0000 </r>
       <r>   -2.8023    1.0000 </r>
       <r>   -2.1273    1.0000 </r>
       <r>   -1.5978    1.0000 </r>
       <r>   -1.2373    1.0000 </r>
       <r>   -0.7516    1.0000 </r>
       <r>   -0.5683    1.0000 </r>
       <r>    0.0074    0.9143 </r>
       <r>    1.2051    0.0000 </r>
       <r>    1.4757    0.0000 </r>
       <r>    1.9766    0.0000 </r>
       <r>    1.9840    0.0000 </r>
       <r>    2.0785    0.0000 </r>
       <r>    2.4481    0.0000 </r>
      </set>
      <set comment="kpoint 25">
       <r>  -11.3076    1.0000 </r>
       <r>  -10.7331    1.0000 </r>
       <r>  -10.3004    1.0000 </r>
       <r>  -10.0267    1.0000 </r>
       <r>   -4.4249    1.0000 </r>
       <r>   -4.3717    1.0000 </r>
       <r>   -4.0360    1.0000 </r>
       <r>   -3.4565    1.0000 </r>
       <r>   -3.2975    1.0000 </r>
       <r>   -3.1753    1.0000 </r>
       <r>   -2.8292    1.0000 </r>
       <r>   -2.8094    1.0000 </r>
       <r>   -2.4040    1.0000 </r>
       <r>   -1.6080    1.0000 </r>
       <r>   -1.4790    1.0000 </r>
       <r>   -0.8814    1.0000 </r>
       <r>   -0.4689    1.0000 </r>
       <r>    0.0179    0.8933 </r>
       <r>    1.1969    0.0000 </r>
       <r>    1.3506    0.0000 </r>
       <r>    1.8205    0.0000 </r>
       <r>    1.9910    0.0000 </r>
       <r>    2.1524    0.0000 </r>
       <r>    2.4679    0.0000 </r>
      </set>
      <set comment="kpoint 26">
       <r>  -11.0128    1.0000 </r>
       <r>  -10.5254    1.0000 </r>
       <r>  -10.3654    1.0000 </r>
       <r>  -10.0736    1.0000 </r>
       <r>   -4.5598    1.0000 </r>
       <r>   -4.3230    1.0000 </r>
       <r>   -4.2581    1.0000 </r>
       <r>   -3.5705    1.0000 </r>
       <r>   -3.2161    1.0000 </r>
       <r>   -3.2097    1.0000 </r>
       <r>   -2.7939    1.0000 </r>
       <r>   -2.7453    1.0000 </r>
       <r>   -2.5780    1.0000 </r>
       <r>   -1.8142    1.0000 </r>
       <r>   -1.5485    1.0000 </r>
       <r>   -1.0514    1.0000 </r>
       <r>   -0.3729    1.0000 </r>
       <r>   -0.0620    0.9816 </r>
       <r>    1.2963    0.0000 </r>
       <r>    1.3691    0.0000 </r>
       <r>    1.7417    0.0000 </r>
       <r>    2.0692    0.0000 </r>
       <r>    2.2215    0.0000 </r>
       <r>    2.2816    0.0000 </r>
      </set>
      <set comment="kpoint 27">
       <r>  -10.7386    1.0000 </r>
       <r>  -10.5146    1.0000 </r>
       <r>  -10.3340    1.0000 </r>
       <r>  -10.1782    1.0000 </r>
       <r>   -4.5904    1.0000 </r>
       <r>   -4.4786    1.0000 </r>
       <r>   -4.1746    1.0000 </r>
       <r>   -3.9181    1.0000 </r>
       <r>   -3.0934    1.0000 </r>
       <r>   -3.0630    1.0000 </r>
       <r>   -2.7486    1.0000 </r>
       <r>   -2.6837    1.0000 </r>
       <r>   -2.5411    1.0000 </r>
       <r>   -2.1884    1.0000 </r>
       <r>   -1.4175    1.0000 </r>
       <r>   -1.2403    1.0000 </r>
       <r>   -0.2903    0.9999 </r>
       <r>   -0.1841    0.9989 </r>
       <r>    1.4375    0.0000 </r>
       <r>    1.4924    0.0000 </r>
       <r>    1.7323    0.0000 </r>
       <r>    1.9722    0.0000 </r>
       <r>    2.1644    0.0000 </r>
       <r>    2.2280    0.0000 </r>
      </set>
      <set comment="kpoint 28">
       <r>  -10.7386    1.0000 </r>
       <r>  -10.5146    1.0000 </r>
       <r>  -10.3340    1.0000 </r>
       <r>  -10.1782    1.0000 </r>
       <r>   -4.5904    1.0000 </r>
       <r>   -4.4786    1.0000 </r>
       <r>   -4.1746    1.0000 </r>
       <r>   -3.9181    1.0000 </r>
       <r>   -3.0934    1.0000 </r>
       <r>   -3.0630    1.0000 </r>
       <r>   -2.7486    1.0000 </r>
       <r>   -2.6837    1.0000 </r>
       <r>   -2.5411    1.0000 </r>
       <r>   -2.1884    1.0000 </r>
       <r>   -1.4175    1.0000 </r>
       <r>   -1.2403    1.0000 </r>
       <r>   -0.2903    0.9999 </r>
       <r>   -0.1841    0.9989 </r>
       <r>    1.4375    0.0000 </r>
       <r>    1.4924    0.0000 </r>
       <r>    1.7323    0.0000 </r>
       <r>    1.9722    0.0000 </r>
       <r>    2.1644    0.0000 </r>
       <r>    2.2280    0.0000 </r>
      </set>
      <set comment="kpoint 29">
       <r>  -11.0128    1.0000 </r>
       <r>  -10.5254    1.0000 </r>
       <r>  -10.3654    1.0000 </r>
       <r>  -10.0736    1.0000 </r>
       <r>   -4.5598    1.0000 </r>
       <r>   -4.3230    1.0000 </r>
       <r>   -4.2581    1.0000 </r>
       <r>   -3.5705    1.0000 </r>
       <r>   -3.2161    1.0000 </r>
       <r>   -3.2097    1.0000 </r>
       <r>   -2.7939    1.0000 </r>
       <r>   -2.7453    1.0000 </r>
       <r>   -2.5780    1.0000 </r>
       <r>   -1.8142    1.0000 </r>
       <r>   -1.5485    1.0000 </r>
       <r>   -1.0514    1.0000 </r>
       <r>   -0.3729    1.0000 </r>
       <r>   -0.0620    0.9816 </r>
       <r>    1.2963    0.0000 </r>
       <r>    1.3691    0.0000 </r>
       <r>    1.7417    0.0000 </r>
       <r>    2.0692    0.0000 </r>
       <r>    2.2215    0.0000 </r>
       <r>    2.2816    0.0000 </r>
      </set>
      <set comment="kpoint 30">
       <r>  -11.3076    1.0000 </r>
       <r>  -10.7331    1.0000 </r>
       <r>  -10.3004    1.0000 </r>
       <r>  -10.0267    1.0000 </r>
       <r>   -4.4249    1.0000 </r>
       <r>   -4.3717    1.0000 </r>
       <r>   -4.0360    1.0000 </r>
       <r>   -3.4565    1.0000 </r>
       <r>   -3.2975    1.0000 </r>
       <r>   -3.1753    1.0000 </r>
       <r>   -2.8292    1.0000 </r>
       <r>   -2.8094    1.0000 </r>
       <r>   -2.4040    1.0000 </r>
       <r>   -1.6080    1.0000 </r>
       <r>   -1.4790    1.0000 </r>
       <r>   -0.8814    1.0000 </r>
       <r>   -0.4689    1.0000 </r>
       <r>    0.0179    0.8933 </r>
       <r>    1.1969    0.0000 </r>
       <r>    1.3506    0.0000 </r>
       <r>    1.8205    0.0000 </r>
       <r>    1.9910    0.0000 </r>
       <r>    2.1524    0.0000 </r>
       <r>    2.4679    0.0000 </r>
      </set>
      <set comment="kpoint 31">
       <r>  -11.5972    1.0000 </r>
       <r>  -10.9392    1.0000 </r>
       <r>  -10.3084    1.0000 </r>
       <r>  -10.0316    1.0000 </r>
       <r>   -4.3838    1.0000 </r>
       <r>   -4.3554    1.0000 </r>
       <r>   -4.0308    1.0000 </r>
       <r>   -3.4702    1.0000 </r>
       <r>   -3.1436    1.0000 </r>
       <r>   -2.8403    1.0000 </r>
       <r>   -2.8326    1.0000 </r>
       <r>   -2.8023    1.0000 </r>
       <r>   -2.1273    1.0000 </r>
       <r>   -1.5978    1.0000 </r>
       <r>   -1.2373    1.0000 </r>
       <r>   -0.7516    1.0000 </r>
       <r>   -0.5683    1.0000 </r>
       <r>    0.0074    0.9143 </r>
       <r>    1.2051    0.0000 </r>
       <r>    1.4757    0.0000 </r>
       <r>    1.9766    0.0000 </r>
       <r>    1.9840    0.0000 </r>
       <r>    2.0785    0.0000 </r>
       <r>    2.4481    0.0000 </r>
      </set>
      <set comment="kpoint 32">
       <r>  -11.8617    1.0000 </r>
       <r>  -11.1291    1.0000 </r>
       <r>  -10.3648    1.0000 </r>
       <r>  -10.0730    1.0000 </r>
       <r>   -4.5602    1.0000 </r>
       <r>   -4.3235    1.0000 </r>
       <r>   -4.2113    1.0000 </r>
       <r>   -3.2158    1.0000 </r>
       <r>   -2.7944    1.0000 </r>
       <r>   -2.7873    1.0000 </r>
       <r>   -2.7455    1.0000 </r>
       <r>   -2.4974    1.0000 </r>
       <r>   -1.7570    1.0000 </r>
       <r>   -1.5480    1.0000 </r>
       <r>   -1.1814    1.0000 </r>
       <r>   -0.6726    1.0000 </r>
       <r>   -0.5702    1.0000 </r>
       <r>   -0.0623    0.9818 </r>
       <r>    1.2969    0.0000 </r>
       <r>    1.6867    0.0000 </r>
       <r>    2.0689    0.0000 </r>
       <r>    2.0695    0.0000 </r>
       <r>    2.2748    0.0000 </r>
       <r>    2.2825    0.0000 </r>
      </set>
      <set comment="kpoint 33">
       <r>  -12.0869    1.0000 </r>
       <r>  -11.2919    1.0000 </r>
       <r>  -10.4426    1.0000 </r>
       <r>  -10.1320    1.0000 </r>
       <r>   -4.7878    1.0000 </r>
       <r>   -4.4212    1.0000 </r>
       <r>   -4.3131    1.0000 </r>
       <r>   -3.1297    1.0000 </r>
       <r>   -2.6741    1.0000 </r>
       <r>   -2.3980    1.0000 </r>
       <r>   -2.3095    1.0000 </r>
       <r>   -2.2393    1.0000 </r>
       <r>   -1.4987    1.0000 </r>
       <r>   -1.3865    1.0000 </r>
       <r>   -1.2808    1.0000 </r>
       <r>   -0.6451    1.0000 </r>
       <r>   -0.4881    1.0000 </r>
       <r>   -0.1304    0.9962 </r>
       <r>    1.4055    0.0000 </r>
       <r>    1.9966    0.0000 </r>
       <r>    2.0700    0.0000 </r>
       <r>    2.1819    0.0000 </r>
       <r>    2.3006    0.0000 </r>
       <r>    2.6330    0.0000 </r>
      </set>
      <set comment="kpoint 34">
       <r>  -12.2630    1.0000 </r>
       <r>  -11.4198    1.0000 </r>
       <r>  -10.5192    1.0000 </r>
       <r>  -10.1913    1.0000 </r>
       <r>   -4.9832    1.0000 </r>
       <r>   -4.6032    1.0000 </r>
       <r>   -4.3284    1.0000 </r>
       <r>   -3.1607    1.0000 </r>
       <r>   -2.5009    1.0000 </r>
       <r>   -2.0517    1.0000 </r>
       <r>   -2.0069    1.0000 </r>
       <r>   -1.7064    1.0000 </r>
       <r>   -1.4783    1.0000 </r>
       <r>   -1.4073    1.0000 </r>
       <r>   -1.1048    1.0000 </r>
       <r>   -0.6632    1.0000 </r>
       <r>   -0.4253    1.0000 </r>
       <r>   -0.1721    0.9985 </r>
       <r>    1.4800    0.0000 </r>
       <r>    1.8846    0.0000 </r>
       <r>    2.4134    0.0000 </r>
       <r>    2.4333    0.0000 </r>
       <r>    2.6758    0.0000 </r>
       <r>    2.9668    0.0000 </r>
      </set>
      <set comment="kpoint 35">
       <r>  -12.3837    1.0000 </r>
       <r>  -11.5077    1.0000 </r>
       <r>  -10.5785    1.0000 </r>
       <r>  -10.2378    1.0000 </r>
       <r>   -5.1214    1.0000 </r>
       <r>   -4.7339    1.0000 </r>
       <r>   -4.3527    1.0000 </r>
       <r>   -3.2020    1.0000 </r>
       <r>   -2.3245    1.0000 </r>
       <r>   -1.8109    1.0000 </r>
       <r>   -1.7933    1.0000 </r>
       <r>   -1.5058    1.0000 </r>
       <r>   -1.4923    1.0000 </r>
       <r>   -1.1401    1.0000 </r>
       <r>   -0.9368    1.0000 </r>
       <r>   -0.7135    1.0000 </r>
       <r>   -0.3983    1.0000 </r>
       <r>   -0.2016    0.9993 </r>
       <r>    1.4910    0.0000 </r>
       <r>    1.7814    0.0000 </r>
       <r>    2.7598    0.0000 </r>
       <r>    2.8684    0.0000 </r>
       <r>    3.1289    0.0000 </r>
       <r>    3.2252    0.0000 </r>
      </set>
      <set comment="kpoint 36">
       <r>  -12.4450    1.0000 </r>
       <r>  -11.5525    1.0000 </r>
       <r>  -10.6105    1.0000 </r>
       <r>  -10.2631    1.0000 </r>
       <r>   -5.1924    1.0000 </r>
       <r>   -4.8017    1.0000 </r>
       <r>   -4.3693    1.0000 </r>
       <r>   -3.2274    1.0000 </r>
       <r>   -2.2073    1.0000 </r>
       <r>   -1.6894    1.0000 </r>
       <r>   -1.6547    1.0000 </r>
       <r>   -1.5586    1.0000 </r>
       <r>   -1.5185    1.0000 </r>
       <r>   -0.8576    1.0000 </r>
       <r>   -0.7671    1.0000 </r>
       <r>   -0.7595    1.0000 </r>
       <r>   -0.3910    1.0000 </r>
       <r>   -0.2457    0.9997 </r>
       <r>    1.4699    0.0000 </r>
       <r>    1.7524    0.0000 </r>
       <r>    3.0052    0.0000 </r>
       <r>    3.1837    0.0000 </r>
       <r>    3.2013    0.0000 </r>
       <r>    3.3095    0.0000 </r>
      </set>
      <set comment="kpoint 37">
       <r>  -12.4040    1.0000 </r>
       <r>  -11.5226    1.0000 </r>
       <r>  -10.6960    1.0000 </r>
       <r>  -10.3191    1.0000 </r>
       <r>   -5.0623    1.0000 </r>
       <r>   -4.7563    1.0000 </r>
       <r>   -4.2588    1.0000 </r>
       <r>   -3.2443    1.0000 </r>
       <r>   -2.1776    1.0000 </r>
       <r>   -1.7720    1.0000 </r>
       <r>   -1.7465    1.0000 </r>
       <r>   -1.5247    1.0000 </r>
       <r>   -1.4974    1.0000 </r>
       <r>   -0.9172    1.0000 </r>
       <r>   -0.8110    1.0000 </r>
       <r>   -0.7219    1.0000 </r>
       <r>   -0.3954    1.0000 </r>
       <r>   -0.2916    0.9999 </r>
       <r>    1.5037    0.0000 </r>
       <r>    1.7072    0.0000 </r>
       <r>    2.8338    0.0000 </r>
       <r>    2.9731    0.0000 </r>
       <r>    3.2173    0.0000 </r>
       <r>    3.2358    0.0000 </r>
      </set>
      <set comment="kpoint 38">
       <r>  -12.3432    1.0000 </r>
       <r>  -11.4782    1.0000 </r>
       <r>  -10.6618    1.0000 </r>
       <r>  -10.2926    1.0000 </r>
[...]
       <r>    2.2890    0.0000 </r>
      </set>
      <set comment="kpoint 159">
       <r>  -11.4638    1.0000 </r>
       <r>  -11.3215    1.0000 </r>
       <r>  -10.8437    1.0000 </r>
       <r>  -10.7424    1.0000 </r>
       <r>   -4.0068    1.0000 </r>
       <r>   -3.9897    1.0000 </r>
       <r>   -3.2712    1.0000 </r>
       <r>   -3.2376    1.0000 </r>
       <r>   -3.0988    1.0000 </r>
       <r>   -2.9329    1.0000 </r>
       <r>   -2.4814    1.0000 </r>
       <r>   -2.3289    1.0000 </r>
       <r>   -1.5444    1.0000 </r>
       <r>   -1.3747    1.0000 </r>
       <r>   -0.8219    1.0000 </r>
       <r>   -0.7692    1.0000 </r>
       <r>   -0.5172    1.0000 </r>
       <r>   -0.4637    1.0000 </r>
       <r>    1.3308    0.0000 </r>
       <r>    1.3901    0.0000 </r>
       <r>    1.8229    0.0000 </r>
       <r>    1.8862    0.0000 </r>
       <r>    2.0651    0.0000 </r>
       <r>    2.0739    0.0000 </r>
      </set>
      <set comment="kpoint 160">
       <r>  -11.6134    1.0000 </r>
       <r>  -11.4637    1.0000 </r>
       <r>  -10.9504    1.0000 </r>
       <r>  -10.8435    1.0000 </r>
       <r>   -4.0318    1.0000 </r>
       <r>   -3.9896    1.0000 </r>
       <r>   -3.2372    1.0000 </r>
       <r>   -3.1006    1.0000 </r>
       <r>   -2.9324    1.0000 </r>
       <r>   -2.7199    1.0000 </r>
       <r>   -2.3296    1.0000 </r>
       <r>   -2.2093    1.0000 </r>
       <r>   -1.3752    1.0000 </r>
       <r>   -1.2852    1.0000 </r>
       <r>   -0.7692    1.0000 </r>
       <r>   -0.6787    1.0000 </r>
       <r>   -0.5530    1.0000 </r>
       <r>   -0.5171    1.0000 </r>
       <r>    1.3901    0.0000 </r>
       <r>    1.4704    0.0000 </r>
       <r>    1.8857    0.0000 </r>
       <r>    1.9750    0.0000 </r>
       <r>    2.0095    0.0000 </r>
       <r>    2.0651    0.0000 </r>
      </set>
      <set comment="kpoint 161">
       <r>  -11.7179    1.0000 </r>
       <r>  -11.5637    1.0000 </r>
       <r>  -11.0257    1.0000 </r>
       <r>  -10.9154    1.0000 </r>
       <r>   -4.1031    1.0000 </r>
       <r>   -4.0316    1.0000 </r>
       <r>   -3.2161    1.0000 </r>
       <r>   -3.0136    1.0000 </r>
       <r>   -2.9210    1.0000 </r>
       <r>   -2.6937    1.0000 </r>
       <r>   -2.0149    1.0000 </r>
       <r>   -1.9006    1.0000 </r>
       <r>   -1.1500    1.0000 </r>
       <r>   -1.1478    1.0000 </r>
       <r>   -0.8789    1.0000 </r>
       <r>   -0.7659    1.0000 </r>
       <r>   -0.6032    1.0000 </r>
       <r>   -0.6009    1.0000 </r>
       <r>    1.4850    0.0000 </r>
       <r>    1.5651    0.0000 </r>
       <r>    1.9957    0.0000 </r>
       <r>    2.1067    0.0000 </r>
       <r>    2.1242    0.0000 </r>
       <r>    2.1932    0.0000 </r>
      </set>
      <set comment="kpoint 162">
       <r>  -11.7715    1.0000 </r>
       <r>  -11.6152    1.0000 </r>
       <r>  -11.0644    1.0000 </r>
       <r>  -10.9526    1.0000 </r>
       <r>   -4.1483    1.0000 </r>
       <r>   -4.0658    1.0000 </r>
       <r>   -3.2095    1.0000 </r>
       <r>   -2.9780    1.0000 </r>
       <r>   -2.9355    1.0000 </r>
       <r>   -2.7054    1.0000 </r>
       <r>   -1.7221    1.0000 </r>
       <r>   -1.6052    1.0000 </r>
       <r>   -1.0678    1.0000 </r>
       <r>   -1.0389    1.0000 </r>
       <r>   -0.9505    1.0000 </r>
       <r>   -0.9485    1.0000 </r>
       <r>   -0.7151    1.0000 </r>
       <r>   -0.6548    1.0000 </r>
       <r>    1.5391    0.0000 </r>
       <r>    1.6118    0.0000 </r>
       <r>    2.1179    0.0000 </r>
       <r>    2.2197    0.0000 </r>
       <r>    2.2761    0.0000 </r>
       <r>    2.3165    0.0000 </r>
      </set>
     </set>
    </set>
   </array>
  </eigenvalues>
  <separator name="orbital magnetization" >
   <v name="MAGDIPOLOUT">      0.00000000      0.00000000      0.00000000</v>
  </separator>
  <dos>
   <i name="efermi">      0.10951760 </i>
   <total>
    <array>
     <dimension dim="1">gridpoints</dimension>
     <dimension dim="2">spin</dimension>
     <field>energy</field>
     <field>total</field>
     <field>integrated</field>
     <set>
      <set comment="spin 1">
       <r>   -13.2581     0.0000     0.0000 </r>
       <r>   -13.2000     0.0000     0.0000 </r>
       <r>   -13.1418     0.0000     0.0000 </r>
       <r>   -13.0837     0.0000     0.0000 </r>
       <r>   -13.0256     0.0000     0.0000 </r>
       <r>   -12.9675     0.0000     0.0000 </r>
       <r>   -12.9094     0.0000     0.0000 </r>
       <r>   -12.8512     0.0001     0.0000 </r>
       <r>   -12.7931     0.0004     0.0000 </r>
       <r>   -12.7350     0.0015     0.0001 </r>
       <r>   -12.6769     0.0056     0.0004 </r>
       <r>   -12.6188     0.0213     0.0017 </r>
       <r>   -12.5606     0.0772     0.0062 </r>
       <r>   -12.5025     0.2433     0.0203 </r>
       <r>   -12.4444     0.5628     0.0530 </r>
       <r>   -12.3863     0.8779     0.1040 </r>
       <r>   -12.3282     1.0310     0.1640 </r>
       <r>   -12.2700     1.1097     0.2285 </r>
       <r>   -12.2119     1.1297     0.2941 </r>
       <r>   -12.1538     1.1097     0.3586 </r>
       <r>   -12.0957     1.1719     0.4268 </r>
       <r>   -12.0376     1.2105     0.4972 </r>
       <r>   -11.9794     1.1496     0.5640 </r>
       <r>   -11.9213     1.1422     0.6305 </r>
       <r>   -11.8632     1.2664     0.7041 </r>
       <r>   -11.8051     1.3012     0.7798 </r>
       <r>   -11.7470     1.2513     0.8526 </r>
       <r>   -11.6888     1.2474     0.9251 </r>
       <r>   -11.6307     1.4552     1.0098 </r>
       <r>   -11.5726     1.9802     1.1249 </r>
       <r>   -11.5145     2.4090     1.2650 </r>
       <r>   -11.4564     2.6782     1.4207 </r>
       <r>   -11.3982     2.8244     1.5849 </r>
       <r>   -11.3401     2.9506     1.7564 </r>
       <r>   -11.2820     3.2282     1.9441 </r>
       <r>   -11.2239     3.2496     2.1330 </r>
       <r>   -11.1658     3.1696     2.3174 </r>
       <r>   -11.1076     3.2802     2.5081 </r>
       <r>   -11.0495     3.4088     2.7064 </r>
       <r>   -10.9914     3.6572     2.9190 </r>
       <r>   -10.9333     3.8792     3.1447 </r>
       <r>   -10.8752     3.9171     3.3725 </r>
       <r>   -10.8170     3.9896     3.6045 </r>
       <r>   -10.7589     4.3972     3.8602 </r>
       <r>   -10.7008     5.0867     4.1560 </r>
       <r>   -10.6427     5.4850     4.4749 </r>
       <r>   -10.5846     5.9459     4.8207 </r>
       <r>   -10.5264     6.5353     5.2007 </r>
       <r>   -10.4683     6.5590     5.5821 </r>
       <r>   -10.4102     6.0946     5.9364 </r>
       <r>   -10.3521     6.0711     6.2895 </r>
       <r>   -10.2940     6.2483     6.6528 </r>
       <r>   -10.2358     6.0363     7.0039 </r>
       <r>   -10.1777     5.4345     7.3200 </r>
       <r>   -10.1196     4.4504     7.5790 </r>
       <r>   -10.0615     3.3831     7.7758 </r>
       <r>   -10.0034     2.2435     7.9064 </r>
       <r>    -9.9452     1.0835     7.9697 </r>
       <r>    -9.8871     0.3711     7.9916 </r>
       <r>    -9.8290     0.1019     7.9979 </r>
       <r>    -9.7709     0.0257     7.9995 </r>
       <r>    -9.7128     0.0047     7.9999 </r>
       <r>    -9.6546     0.0000     8.0000 </r>
       <r>    -9.5965     0.0000     8.0000 </r>
       <r>    -9.5384     0.0000     8.0000 </r>
       <r>    -9.4803     0.0000     8.0000 </r>
       <r>    -9.4222     0.0000     8.0000 </r>
       <r>    -9.3640     0.0000     8.0000 </r>
       <r>    -9.3059     0.0000     8.0000 </r>
       <r>    -9.2478     0.0000     8.0000 </r>
       <r>    -9.1897     0.0000     8.0000 </r>
       <r>    -9.1316     0.0000     8.0000 </r>
       <r>    -9.0734     0.0000     8.0000 </r>
       <r>    -9.0153     0.0000     8.0000 </r>
       <r>    -8.9572     0.0000     8.0000 </r>
       <r>    -8.8991     0.0000     8.0000 </r>
       <r>    -8.8410     0.0000     8.0000 </r>
       <r>    -8.7829     0.0000     8.0000 </r>
       <r>    -8.7247     0.0000     8.0000 </r>
       <r>    -8.6666     0.0000     8.0000 </r>
       <r>    -8.6085     0.0000     8.0000 </r>
       <r>    -8.5504     0.0000     8.0000 </r>
       <r>    -8.4923     0.0000     8.0000 </r>
       <r>    -8.4341     0.0000     8.0000 </r>
       <r>    -8.3760     0.0000     8.0000 </r>
       <r>    -8.3179     0.0000     8.0000 </r>
       <r>    -8.2598     0.0000     8.0000 </r>
       <r>    -8.2017     0.0000     8.0000 </r>
       <r>    -8.1435     0.0000     8.0000 </r>
       <r>    -8.0854     0.0000     8.0000 </r>
       <r>    -8.0273     0.0000     8.0000 </r>
       <r>    -7.9692     0.0000     8.0000 </r>
       <r>    -7.9111     0.0000     8.0000 </r>
       <r>    -7.8529     0.0000     8.0000 </r>
       <r>    -7.7948     0.0000     8.0000 </r>
       <r>    -7.7367     0.0000     8.0000 </r>
       <r>    -7.6786     0.0000     8.0000 </r>
       <r>    -7.6205     0.0000     8.0000 </r>
       <r>    -7.5623     0.0000     8.0000 </r>
       <r>    -7.5042     0.0000     8.0000 </r>
       <r>    -7.4461     0.0000     8.0000 </r>
       <r>    -7.3880     0.0000     8.0000 </r>
       <r>    -7.3299     0.0000     8.0000 </r>
       <r>    -7.2717     0.0000     8.0000 </r>
       <r>    -7.2136     0.0000     8.0000 </r>
       <r>    -7.1555     0.0000     8.0000 </r>
       <r>    -7.0974     0.0000     8.0000 </r>
       <r>    -7.0393     0.0000     8.0000 </r>
       <r>    -6.9811     0.0000     8.0000 </r>
       <r>    -6.9230     0.0000     8.0000 </r>
       <r>    -6.8649     0.0000     8.0000 </r>
       <r>    -6.8068     0.0000     8.0000 </r>
       <r>    -6.7487     0.0000     8.0000 </r>
       <r>    -6.6905     0.0000     8.0000 </r>
       <r>    -6.6324     0.0000     8.0000 </r>
       <r>    -6.5743     0.0000     8.0000 </r>
       <r>    -6.5162     0.0000     8.0000 </r>
       <r>    -6.4581     0.0000     8.0000 </r>
       <r>    -6.3999     0.0000     8.0000 </r>
       <r>    -6.3418     0.0000     8.0000 </r>
       <r>    -6.2837     0.0000     8.0000 </r>
       <r>    -6.2256     0.0000     8.0000 </r>
       <r>    -6.1675     0.0000     8.0000 </r>
       <r>    -6.1093     0.0000     8.0000 </r>
       <r>    -6.0512     0.0000     8.0000 </r>
       <r>    -5.9931     0.0000     8.0000 </r>
       <r>    -5.9350     0.0000     8.0000 </r>
       <r>    -5.8769     0.0000     8.0000 </r>
       <r>    -5.8187     0.0000     8.0000 </r>
       <r>    -5.7606     0.0000     8.0000 </r>
       <r>    -5.7025     0.0000     8.0000 </r>
       <r>    -5.6444     0.0002     8.0000 </r>
       <r>    -5.5863     0.0008     8.0001 </r>
       <r>    -5.5281     0.0026     8.0002 </r>
       <r>    -5.4700     0.0105     8.0008 </r>
       <r>    -5.4119     0.0394     8.0031 </r>
       <r>    -5.3538     0.1416     8.0113 </r>
       <r>    -5.2957     0.4326     8.0365 </r>
       <r>    -5.2375     0.9339     8.0908 </r>
       <r>    -5.1794     1.3559     8.1696 </r>
       <r>    -5.1213     1.6176     8.2636 </r>
       <r>    -5.0632     1.7935     8.3678 </r>
       <r>    -5.0051     1.7958     8.4722 </r>
       <r>    -4.9469     1.7534     8.5741 </r>
       <r>    -4.8888     1.9731     8.6889 </r>
       <r>    -4.8307     2.5514     8.8372 </r>
       <r>    -4.7726     2.8734     9.0043 </r>
       <r>    -4.7145     3.0138     9.1796 </r>
       <r>    -4.6563     3.2487     9.3684 </r>
       <r>    -4.5982     3.8231     9.5907 </r>
       <r>    -4.5401     4.4915     9.8517 </r>
       <r>    -4.4820     5.0076    10.1429 </r>
       <r>    -4.4239     6.2013    10.5034 </r>
       <r>    -4.3657     7.8445    10.9595 </r>
       <r>    -4.3076     8.2994    11.4420 </r>
       <r>    -4.2495     7.4870    11.8773 </r>
       <r>    -4.1914     6.8052    12.2731 </r>
       <r>    -4.1333     6.3405    12.6418 </r>
       <r>    -4.0751     6.1345    12.9986 </r>
       <r>    -4.0170     5.6385    13.3267 </r>
       <r>    -3.9589     4.1918    13.5708 </r>
       <r>    -3.9008     2.8399    13.7361 </r>
       <r>    -3.8427     2.0247    13.8541 </r>
       <r>    -3.7845     1.4378    13.9378 </r>
       <r>    -3.7264     1.3259    14.0152 </r>
       <r>    -3.6683     1.5036    14.1028 </r>
       <r>    -3.6102     1.5948    14.1956 </r>
       <r>    -3.5521     1.6293    14.2904 </r>
       <r>    -3.4939     1.8718    14.3993 </r>
       <r>    -3.4358     2.7019    14.5563 </r>
       <r>    -3.3777     4.2860    14.8055 </r>
       <r>    -3.3196     6.4488    15.1805 </r>
       <r>    -3.2615     9.0042    15.7038 </r>
       <r>    -3.2033    10.8465    16.3343 </r>
       <r>    -3.1452    10.5956    16.9502 </r>
       <r>    -3.0871     8.2724    17.4311 </r>
       <r>    -3.0290     5.5069    17.7513 </r>
       <r>    -2.9709     3.6976    17.9664 </r>
       <r>    -2.9128     3.2033    18.1531 </r>
       <r>    -2.8546     3.9158    18.3812 </r>
       <r>    -2.7965     5.5210    18.7026 </r>
       <r>    -2.7384     6.6885    19.0917 </r>
       <r>    -2.6803     6.6409    19.4778 </r>
       <r>    -2.6222     5.7247    19.8106 </r>
       <r>    -2.5640     5.3073    20.1192 </r>
       <r>    -2.5059     5.4934    20.4385 </r>
       <r>    -2.4478     5.4527    20.7559 </r>
       <r>    -2.3897     5.2210    21.0597 </r>
       <r>    -2.3316     5.7341    21.3933 </r>
       <r>    -2.2734     6.4265    21.7669 </r>
       <r>    -2.2153     6.3557    22.1365 </r>
       <r>    -2.1572     5.8114    22.4744 </r>
       <r>    -2.0991     5.0461    22.7679 </r>
       <r>    -2.0410     4.6298    23.0372 </r>
       <r>    -1.9828     4.3450    23.2900 </r>
       <r>    -1.9247     3.7791    23.5099 </r>
       <r>    -1.8666     3.4459    23.7104 </r>
       <r>    -1.8085     3.4382    23.9105 </r>
       <r>    -1.7504     3.8082    24.1319 </r>
       <r>    -1.6922     4.4400    24.3902 </r>
       <r>    -1.6341     5.0839    24.6858 </r>
       <r>    -1.5760     6.4274    25.0595 </r>
       <r>    -1.5179     8.6023    25.5596 </r>
       <r>    -1.4598    10.1079    26.1473 </r>
       <r>    -1.4016    10.0434    26.7311 </r>
       <r>    -1.3435     8.9690    27.2527 </r>
       <r>    -1.2854     8.1580    27.7269 </r>
       <r>    -1.2273     8.5051    28.2216 </r>
       <r>    -1.1692     8.4626    28.7138 </r>
       <r>    -1.1110     7.5097    29.1507 </r>
       <r>    -1.0529     6.4920    29.5286 </r>
       <r>    -0.9948     5.9500    29.8748 </r>
       <r>    -0.9367     5.7605    30.2098 </r>
       <r>    -0.8786     5.6034    30.5361 </r>
       <r>    -0.8204     5.3901    30.8497 </r>
       <r>    -0.7623     5.6470    31.1783 </r>
       <r>    -0.7042     6.3726    31.5488 </r>
       <r>    -0.6461     7.0781    31.9605 </r>
       <r>    -0.5880     7.4985    32.3966 </r>
       <r>    -0.5298     7.5346    32.8348 </r>
       <r>    -0.4717     7.3453    33.2619 </r>
       <r>    -0.4136     7.2503    33.6835 </r>
       <r>    -0.3555     7.0360    34.0927 </r>
       <r>    -0.2974     6.5850    34.4758 </r>
       <r>    -0.2392     6.4535    34.8512 </r>
       <r>    -0.1811     6.2130    35.2126 </r>
       <r>    -0.1230     5.1193    35.5104 </r>
       <r>    -0.0649     3.6045    35.7202 </r>
       <r>    -0.0068     2.3589    35.8578 </r>
       <r>     0.0514     1.4118    35.9400 </r>
       <r>     0.1095     0.6833    35.9801 </r>
       <r>     0.1676     0.2412    35.9944 </r>
       <r>     0.2257     0.0672    35.9986 </r>
       <r>     0.2838     0.0164    35.9997 </r>
       <r>     0.3420     0.0036    35.9999 </r>
       <r>     0.4001     0.0000    36.0000 </r>
       <r>     0.4582     0.0000    36.0000 </r>
       <r>     0.5163     0.0000    36.0000 </r>
       <r>     0.5744     0.0000    36.0000 </r>
       <r>     0.6326     0.0000    36.0000 </r>
       <r>     0.6907     0.0000    36.0000 </r>
       <r>     0.7488     0.0000    36.0000 </r>
       <r>     0.8069     0.0003    36.0000 </r>
       <r>     0.8650     0.0010    36.0001 </r>
       <r>     0.9232     0.0042    36.0003 </r>
       <r>     0.9813     0.0167    36.0013 </r>
       <r>     1.0394     0.0623    36.0049 </r>
       <r>     1.0975     0.2142    36.0174 </r>
       <r>     1.1556     0.5862    36.0514 </r>
       <r>     1.2138     1.1939    36.1208 </r>
       <r>     1.2719     2.1872    36.2479 </r>
       <r>     1.3300     4.0004    36.4804 </r>
       <r>     1.3881     6.7088    36.8703 </r>
       <r>     1.4462    10.0677    37.4555 </r>
       <r>     1.5044    12.3496    38.1732 </r>
       <r>     1.5625    10.5079    38.7840 </r>
       <r>     1.6206     7.3372    39.2105 </r>
       <r>     1.6787     7.1882    39.6284 </r>
       <r>     1.7368     9.1850    40.1626 </r>
       <r>     1.7950     9.5305    40.7168 </r>
       <r>     1.8531     7.9293    41.1786 </r>
       <r>     1.9112     6.5268    41.5583 </r>
       <r>     1.9693     6.5883    41.9413 </r>
       <r>     2.0274     7.4200    42.3727 </r>
       <r>     2.0856     8.1412    42.8467 </r>
       <r>     2.1437     8.7230    43.3540 </r>
       <r>     2.2018     8.6919    43.8595 </r>
       <r>     2.2599     8.2125    44.3369 </r>
       <r>     2.3180     7.5208    44.7742 </r>
       <r>     2.3762     5.9769    45.1219 </r>
       <r>     2.4343     4.9142    45.4079 </r>
       <r>     2.4924     4.5796    45.6745 </r>
       <r>     2.5505     4.0174    45.9084 </r>
       <r>     2.6086     3.8505    46.1324 </r>
       <r>     2.6668     3.6713    46.3463 </r>
       <r>     2.7249     2.9924    46.5204 </r>
       <r>     2.7830     2.5899    46.6710 </r>
       <r>     2.8411     2.4327    46.8127 </r>
       <r>     2.8992     2.4169    46.9532 </r>
       <r>     2.9574     2.6187    47.1056 </r>
       <r>     3.0155     2.4272    47.2468 </r>
       <r>     3.0736     2.0318    47.3649 </r>
       <r>     3.1317     2.0648    47.4850 </r>
       <r>     3.1898     2.3064    47.6192 </r>
       <r>     3.2479     2.2192    47.7482 </r>
       <r>     3.3061     1.6985    47.8471 </r>
       <r>     3.3642     1.2840    47.9218 </r>
       <r>     3.4223     0.8305    47.9701 </r>
       <r>     3.4804     0.3577    47.9910 </r>
       <r>     3.5385     0.1117    47.9976 </r>
       <r>     3.5967     0.0291    47.9994 </r>
       <r>     3.6548     0.0075    47.9998 </r>
       <r>     3.7129     0.0008    48.0000 </r>
       <r>     3.7710     0.0000    48.0000 </r>
       <r>     3.8291     0.0000    48.0000 </r>
       <r>     3.8873     0.0000    48.0000 </r>
       <r>     3.9454     0.0000    48.0000 </r>
       <r>     4.0035     0.0000    48.0000 </r>
       <r>     4.0616     0.0000    48.0000 </r>
       <r>     4.1197     0.0000    48.0000 </r>
       <r>     4.1779     0.0000    48.0000 </r>
      </set>
     </set>
    </array>
   </total>
  </dos>
 </calculation>
 <structure name="finalpos" >
  <crystal>
   <varray name="basis" >
    <v>       3.55100000       0.00000000       0.00000000 </v>
    <v>       0.00000000       6.14900000       0.00000000 </v>
    <v>       0.00000000       0.00000000      16.00000000 </v>
   </varray>
   <i name="volume">    349.36158400 </i>
   <varray name="rec_basis" >
    <v>       0.28161081       0.00000000       0.00000000 </v>
    <v>       0.00000000       0.16262807       0.00000000 </v>
    <v>       0.00000000       0.00000000       0.06250000 </v>
   </varray>
  </crystal>
  <varray name="positions" >
   <v>       0.00000000       0.66665908       0.11286901 </v>
   <v>       0.00000000       0.66665908       0.88713099 </v>
   <v>       0.50000000       0.16665897       0.11286770 </v>
   <v>       0.50000000       0.16665897       0.88713229 </v>
   <v>       0.50000000       0.50001204       0.00000000 </v>
   <v>       0.00000000       0.00000986       0.00000000 </v>
  </varray>
 </structure>
</modeling>
