2D MoTe2 in a box                       
           1
     3.551000    0.000000    0.000000
     0.000000    6.149000    0.000000
     0.000000    0.000000   16.000000
   Te   Mo
   4   2
Direct configuration=     1
   0.00000000  0.66665962  0.11282875
   0.00000000  0.66665962  0.88717125
   0.50000000  0.16665799  0.11282750
   0.50000000  0.16665799  0.88717250
   0.50000000  0.50001464  0.00000000
   0.00000000  0.00000813  0.00000000
Direct configuration=     2
   0.00000000  0.66665926  0.11285547
   0.00000000  0.66665926  0.88714453
   0.50000000  0.16665864  0.11285418
   0.50000000  0.16665864  0.88714582
   0.50000000  0.50001291  0.00000000
   0.00000000  0.00000928  0.00000000
Direct configuration=     3
   0.00000000  0.66665908  0.11286901
   0.00000000  0.66665908  0.88713099
   0.50000000  0.16665897  0.11286770
   0.50000000  0.16665897  0.88713229
   0.50000000  0.50001204  0.00000000
   0.00000000  0.00000986  0.00000000
