   6   6   0   0
  0.5822693E+02  0.3551000E-09  0.6149000E-09  0.1600000E-08  0.5000000E-15
  1.000000000000000E-004
  CAR 
 2D MoTe2 in a box                       
      4.17779100    -13.25805524  301      0.22289082      1.00000000
    -13.258  0.0000E+00  0.0000E+00
    -13.200  0.0000E+00  0.0000E+00
    -13.142  0.6966E-07  0.4049E-08
    -13.084  0.1906E-06  0.1513E-07
    -13.026  0.6806E-06  0.5468E-07
    -12.967  0.1320E-05  0.1314E-06
    -12.909  0.2985E-05  0.3049E-06
    -12.851  0.6055E-05  0.6568E-06
    -12.793  0.1275E-04  0.1398E-05
    -12.735  0.2681E-04  0.2956E-05
    -12.677  0.5495E-04  0.6149E-05
    -12.619  0.1100E-03  0.1254E-04
    -12.561  0.2086E-03  0.2467E-04
    -12.503  0.3636E-03  0.4580E-04
    -12.444  0.5611E-03  0.7841E-04
    -12.386  0.7588E-03  0.1225E-03
    -12.328  0.9148E-03  0.1757E-03
    -12.270  0.1019E-02  0.2349E-03
    -12.212  0.1080E-02  0.2977E-03
    -12.154  0.1119E-02  0.3627E-03
    -12.096  0.1150E-02  0.4295E-03
    -12.038  0.1171E-02  0.4975E-03
    -11.979  0.1185E-02  0.5664E-03
    -11.921  0.1210E-02  0.6367E-03
    -11.863  0.1252E-02  0.7095E-03
    -11.805  0.1300E-02  0.7850E-03
    -11.747  0.1361E-02  0.8641E-03
    -11.689  0.1478E-02  0.9501E-03
    -11.631  0.1688E-02  0.1048E-02
    -11.573  0.1981E-02  0.1163E-02
    -11.514  0.2287E-02  0.1296E-02
    -11.456  0.2549E-02  0.1445E-02
    -11.398  0.2760E-02  0.1605E-02
    -11.340  0.2936E-02  0.1776E-02
    -11.282  0.3081E-02  0.1955E-02
    -11.224  0.3181E-02  0.2140E-02
    -11.166  0.3260E-02  0.2329E-02
    -11.108  0.3359E-02  0.2524E-02
    -11.050  0.3496E-02  0.2728E-02
    -10.991  0.3664E-02  0.2941E-02
    -10.933  0.3841E-02  0.3164E-02
    -10.875  0.4026E-02  0.3398E-02
    -10.817  0.4265E-02  0.3646E-02
    -10.759  0.4604E-02  0.3914E-02
    -10.701  0.5016E-02  0.4205E-02
    -10.643  0.5429E-02  0.4521E-02
    -10.585  0.5801E-02  0.4858E-02
    -10.526  0.6072E-02  0.5211E-02
    -10.468  0.6171E-02  0.5570E-02
    -10.410  0.6125E-02  0.5926E-02
    -10.352  0.6023E-02  0.6276E-02
    -10.294  0.5855E-02  0.6617E-02
    -10.236  0.5524E-02  0.6938E-02
    -10.178  0.4965E-02  0.7226E-02
    -10.120  0.4201E-02  0.7471E-02
    -10.061  0.3309E-02  0.7663E-02
    -10.003  0.2388E-02  0.7802E-02
     -9.945  0.1548E-02  0.7892E-02
     -9.887  0.8990E-03  0.7945E-02
     -9.829  0.4795E-03  0.7973E-02
     -9.771  0.2403E-03  0.7987E-02
     -9.713  0.1161E-03  0.7994E-02
     -9.655  0.5376E-04  0.7997E-02
     -9.597  0.2417E-04  0.7999E-02
     -9.538  0.9649E-05  0.7999E-02
     -9.480  0.3701E-05  0.8000E-02
     -9.422  0.8395E-06  0.8000E-02
     -9.364  0.0000E+00  0.8000E-02
     -9.306  0.0000E+00  0.8000E-02
     -9.248  0.0000E+00  0.8000E-02
     -9.190  0.0000E+00  0.8000E-02
     -9.132  0.0000E+00  0.8000E-02
     -9.073  0.0000E+00  0.8000E-02
     -9.015  0.0000E+00  0.8000E-02
     -8.957  0.0000E+00  0.8000E-02
     -8.899  0.0000E+00  0.8000E-02
     -8.841  0.0000E+00  0.8000E-02
     -8.783  0.0000E+00  0.8000E-02
     -8.725  0.0000E+00  0.8000E-02
     -8.667  0.0000E+00  0.8000E-02
     -8.608  0.0000E+00  0.8000E-02
     -8.550  0.0000E+00  0.8000E-02
     -8.492  0.0000E+00  0.8000E-02
     -8.434  0.0000E+00  0.8000E-02
     -8.376  0.0000E+00  0.8000E-02
     -8.318  0.0000E+00  0.8000E-02
     -8.260  0.0000E+00  0.8000E-02
     -8.202  0.0000E+00  0.8000E-02
     -8.144  0.0000E+00  0.8000E-02
     -8.085  0.0000E+00  0.8000E-02
     -8.027  0.0000E+00  0.8000E-02
     -7.969  0.0000E+00  0.8000E-02
     -7.911  0.0000E+00  0.8000E-02
     -7.853  0.0000E+00  0.8000E-02
     -7.795  0.0000E+00  0.8000E-02
     -7.737  0.0000E+00  0.8000E-02
     -7.679  0.0000E+00  0.8000E-02
     -7.620  0.0000E+00  0.8000E-02
     -7.562  0.0000E+00  0.8000E-02
     -7.504  0.0000E+00  0.8000E-02
     -7.446  0.0000E+00  0.8000E-02
     -7.388  0.0000E+00  0.8000E-02
     -7.330  0.0000E+00  0.8000E-02
     -7.272  0.0000E+00  0.8000E-02
     -7.214  0.0000E+00  0.8000E-02
     -7.156  0.0000E+00  0.8000E-02
     -7.097  0.0000E+00  0.8000E-02
     -7.039  0.0000E+00  0.8000E-02
     -6.981  0.0000E+00  0.8000E-02
     -6.923  0.0000E+00  0.8000E-02
     -6.865  0.0000E+00  0.8000E-02
     -6.807  0.0000E+00  0.8000E-02
     -6.749  0.0000E+00  0.8000E-02
     -6.691  0.0000E+00  0.8000E-02
     -6.632  0.0000E+00  0.8000E-02
     -6.574  0.0000E+00  0.8000E-02
     -6.516  0.0000E+00  0.8000E-02
     -6.458  0.0000E+00  0.8000E-02
     -6.400  0.0000E+00  0.8000E-02
     -6.342  0.0000E+00  0.8000E-02
     -6.284  0.0000E+00  0.8000E-02
     -6.226  0.0000E+00  0.8000E-02
     -6.167  0.0000E+00  0.8000E-02
     -6.109  0.0000E+00  0.8000E-02
     -6.051  0.0000E+00  0.8000E-02
     -5.993  0.0000E+00  0.8000E-02
     -5.935  0.1423E-06  0.8000E-02
     -5.877  0.3978E-06  0.8000E-02
     -5.819  0.1111E-05  0.8000E-02
     -5.761  0.2422E-05  0.8000E-02
     -5.703  0.4919E-05  0.8001E-02
     -5.644  0.1044E-04  0.8001E-02
     -5.586  0.2158E-04  0.8002E-02
     -5.528  0.4548E-04  0.8005E-02
     -5.470  0.9340E-04  0.8010E-02
     -5.412  0.1857E-03  0.8021E-02
     -5.354  0.3490E-03  0.8042E-02
     -5.296  0.5980E-03  0.8076E-02
     -5.238  0.9084E-03  0.8129E-02
     -5.179  0.1216E-02  0.8200E-02
     -5.121  0.1472E-02  0.8285E-02
     -5.063  0.1662E-02  0.8382E-02
     -5.005  0.1808E-02  0.8487E-02
     -4.947  0.1966E-02  0.8601E-02
     -4.889  0.2199E-02  0.8729E-02
     -4.831  0.2506E-02  0.8875E-02
     -4.773  0.2825E-02  0.9039E-02
     -4.714  0.3151E-02  0.9222E-02
     -4.656  0.3539E-02  0.9428E-02
     -4.598  0.4037E-02  0.9662E-02
     -4.540  0.4645E-02  0.9932E-02
     -4.482  0.5356E-02  0.1024E-01
     -4.424  0.6153E-02  0.1060E-01
     -4.366  0.6852E-02  0.1100E-01
     -4.308  0.7180E-02  0.1142E-01
     -4.250  0.7077E-02  0.1183E-01
     -4.191  0.6724E-02  0.1222E-01
     -4.133  0.6278E-02  0.1258E-01
     -4.075  0.5751E-02  0.1292E-01
     -4.017  0.5056E-02  0.1321E-01
     -3.959  0.4177E-02  0.1346E-01
     -3.901  0.3276E-02  0.1365E-01
     -3.843  0.2531E-02  0.1379E-01
     -3.785  0.2025E-02  0.1391E-01
     -3.726  0.1777E-02  0.1401E-01
     -3.668  0.1740E-02  0.1412E-01
     -3.610  0.1857E-02  0.1422E-01
     -3.552  0.2137E-02  0.1435E-01
     -3.494  0.2678E-02  0.1450E-01
     -3.436  0.3581E-02  0.1471E-01
     -3.378  0.4862E-02  0.1500E-01
     -3.320  0.6371E-02  0.1537E-01
     -3.262  0.7770E-02  0.1582E-01
     -3.203  0.8595E-02  0.1632E-01
     -3.145  0.8490E-02  0.1681E-01
     -3.087  0.7530E-02  0.1725E-01
     -3.029  0.6220E-02  0.1761E-01
     -2.971  0.5148E-02  0.1791E-01
     -2.913  0.4669E-02  0.1818E-01
     -2.855  0.4811E-02  0.1846E-01
     -2.797  0.5314E-02  0.1877E-01
     -2.738  0.5773E-02  0.1910E-01
     -2.680  0.5919E-02  0.1945E-01
     -2.622  0.5793E-02  0.1979E-01
     -2.564  0.5627E-02  0.2011E-01
     -2.506  0.5546E-02  0.2044E-01
     -2.448  0.5534E-02  0.2076E-01
     -2.390  0.5595E-02  0.2108E-01
     -2.332  0.5749E-02  0.2142E-01
     -2.273  0.5880E-02  0.2176E-01
     -2.215  0.5822E-02  0.2210E-01
     -2.157  0.5543E-02  0.2242E-01
     -2.099  0.5143E-02  0.2272E-01
     -2.041  0.4742E-02  0.2299E-01
     -1.983  0.4384E-02  0.2325E-01
     -1.925  0.4086E-02  0.2349E-01
     -1.867  0.3930E-02  0.2372E-01
     -1.809  0.3995E-02  0.2395E-01
     -1.750  0.4317E-02  0.2420E-01
     -1.692  0.4888E-02  0.2448E-01
     -1.634  0.5708E-02  0.2482E-01
     -1.576  0.6766E-02  0.2521E-01
     -1.518  0.7882E-02  0.2567E-01
     -1.460  0.8699E-02  0.2617E-01
     -1.402  0.8979E-02  0.2669E-01
     -1.344  0.8822E-02  0.2721E-01
     -1.285  0.8530E-02  0.2770E-01
     -1.227  0.8263E-02  0.2818E-01
     -1.169  0.7911E-02  0.2864E-01
     -1.111  0.7394E-02  0.2907E-01
     -1.053  0.6819E-02  0.2947E-01
     -0.995  0.6347E-02  0.2984E-01
     -0.937  0.6035E-02  0.3019E-01
     -0.879  0.5874E-02  0.3053E-01
     -0.820  0.5872E-02  0.3087E-01
     -0.762  0.6065E-02  0.3123E-01
     -0.704  0.6421E-02  0.3160E-01
     -0.646  0.6808E-02  0.3200E-01
     -0.588  0.7090E-02  0.3241E-01
     -0.530  0.7211E-02  0.3283E-01
     -0.472  0.7184E-02  0.3324E-01
     -0.414  0.7053E-02  0.3365E-01
     -0.356  0.6828E-02  0.3405E-01
     -0.297  0.6515E-02  0.3443E-01
     -0.239  0.6111E-02  0.3479E-01
     -0.181  0.5531E-02  0.3511E-01
     -0.123  0.4699E-02  0.3538E-01
     -0.065  0.3693E-02  0.3560E-01
     -0.007  0.2689E-02  0.3575E-01
      0.051  0.1814E-02  0.3586E-01
      0.109  0.1127E-02  0.3592E-01
      0.168  0.6414E-03  0.3596E-01
      0.226  0.3378E-03  0.3598E-01
      0.284  0.1683E-03  0.3599E-01
      0.342  0.8043E-04  0.3600E-01
      0.400  0.3689E-04  0.3600E-01
      0.458  0.1522E-04  0.3600E-01
      0.516  0.6635E-05  0.3600E-01
      0.574  0.2615E-05  0.3600E-01
      0.633  0.2075E-05  0.3600E-01
      0.691  0.3710E-05  0.3600E-01
      0.749  0.7768E-05  0.3600E-01
      0.807  0.1894E-04  0.3600E-01
      0.865  0.4034E-04  0.3600E-01
      0.923  0.8076E-04  0.3601E-01
      0.981  0.1655E-03  0.3602E-01
      1.039  0.3331E-03  0.3604E-01
      1.097  0.6406E-03  0.3608E-01
      1.156  0.1157E-02  0.3614E-01
      1.214  0.1965E-02  0.3626E-01
      1.272  0.3151E-02  0.3644E-01
      1.330  0.4753E-02  0.3672E-01
      1.388  0.6629E-02  0.3710E-01
      1.446  0.8362E-02  0.3759E-01
      1.504  0.9336E-02  0.3813E-01
      1.562  0.9270E-02  0.3867E-01
      1.621  0.8708E-02  0.3917E-01
      1.679  0.8419E-02  0.3966E-01
      1.737  0.8470E-02  0.4016E-01
      1.795  0.8380E-02  0.4064E-01
      1.853  0.7961E-02  0.4111E-01
      1.911  0.7524E-02  0.4154E-01
      1.969  0.7400E-02  0.4197E-01
      2.027  0.7595E-02  0.4242E-01
      2.085  0.7899E-02  0.4287E-01
      2.144  0.8090E-02  0.4335E-01
      2.202  0.8025E-02  0.4381E-01
      2.260  0.7653E-02  0.4426E-01
      2.318  0.7003E-02  0.4466E-01
      2.376  0.6180E-02  0.4502E-01
      2.434  0.5401E-02  0.4534E-01
      2.492  0.4778E-02  0.4562E-01
      2.550  0.4291E-02  0.4587E-01
      2.609  0.3896E-02  0.4609E-01
      2.667  0.3532E-02  0.4630E-01
      2.725  0.3162E-02  0.4648E-01
      2.783  0.2850E-02  0.4665E-01
      2.841  0.2644E-02  0.4680E-01
      2.899  0.2531E-02  0.4695E-01
      2.957  0.2452E-02  0.4709E-01
      3.015  0.2346E-02  0.4723E-01
      3.074  0.2223E-02  0.4736E-01
      3.132  0.2140E-02  0.4748E-01
      3.190  0.2060E-02  0.4760E-01
      3.248  0.1890E-02  0.4771E-01
      3.306  0.1603E-02  0.4780E-01
      3.364  0.1252E-02  0.4788E-01
      3.422  0.8892E-03  0.4793E-01
      3.480  0.5640E-03  0.4796E-01
      3.538  0.3202E-03  0.4798E-01
      3.597  0.1667E-03  0.4799E-01
      3.655  0.8260E-04  0.4800E-01
      3.713  0.3984E-04  0.4800E-01
      3.771  0.1854E-04  0.4800E-01
      3.829  0.8205E-05  0.4800E-01
      3.887  0.3226E-05  0.4800E-01
      3.945  0.1265E-05  0.4800E-01
      4.003  0.1628E-06  0.4800E-01
      4.062  0.0000E+00  0.4800E-01
      4.120  0.0000E+00  0.4800E-01
      4.178  0.0000E+00  0.4800E-01
