    6    6 1000    1
  0.5822693E+02  0.3551000E-09  0.6149000E-09  0.1600000E-08  0.5000000E-15
  1.000000000000000E-004
  CAR 
 2D MoTe2 in a box                       
     36    162     24
 
  0.2777778E-01  0.2777778E-01  0.1262379E-14  0.6172840E-02
    1      -12.465517
    2      -11.567601
    3      -10.565474
    4      -10.234049
    5       -5.260197
    6       -4.824538
    7       -4.426271
    8       -3.219619
    9       -2.222033
   10       -1.643099
   11       -1.607978
   12       -1.574341
   13       -1.528710
   14       -0.826606
   15       -0.796703
   16       -0.729040
   17       -0.389571
   18       -0.221704
   19        1.453304
   20        1.780359
   21        3.103276
   22        3.166537
   23        3.337543
   24        3.364376
 
  0.8333333E-01  0.2777778E-01  0.1262379E-14  0.6172840E-02
    1      -12.404046
    2      -11.522736
    3      -10.534687
    4      -10.209347
    5       -5.185799
    6       -4.756134
    7       -4.408738
    8       -3.196521
    9       -2.330740
   10       -1.772308
   11       -1.747407
   12       -1.522473
   13       -1.512263
   14       -1.121724
   15       -0.915782
   16       -0.722669
   17       -0.395419
   18       -0.177751
   19        1.479500
   20        1.817868
   21        2.832910
   22        2.971516
   23        3.184565
   24        3.218918
 
  0.1388889E+00  0.2777778E-01  0.1262379E-14  0.6172840E-02
    1      -12.282948
    2      -11.434470
    3      -10.477915
    4      -10.164115
    5       -5.039641
    6       -4.624182
    7       -4.381795
    8       -3.161057
    9       -2.499009
   10       -2.006427
   11       -1.970438
   12       -1.701133
   13       -1.507806
   14       -1.426104
   15       -1.109690
   16       -0.636346
   17       -0.419039
   18       -0.146189
   19        1.462142
   20        1.939994
   21        2.467467
   22        2.490000
   23        2.698854
   24        2.980104
 
  0.1944444E+00  0.2777778E-01  0.1262379E-14  0.6172840E-02
    1      -12.106089
    2      -11.305946
    3      -10.405255
    4      -10.106950
    5       -4.828004
    6       -4.439742
    7       -4.360677
    8       -3.145450
    9       -2.669382
   10       -2.352525
   11       -2.311870
   12       -2.195121
   13       -1.532370
   14       -1.418928
   15       -1.304781
   16       -0.586341
   17       -0.476498
   18       -0.099674
   19        1.377085
   20        2.048295
   21        2.141739
   22        2.172890
   23        2.308053
   24        2.624222
 
  0.2500000E+00  0.2777778E-01  0.1262379E-14  0.6172840E-02
    1      -11.879862
    2      -11.142253
    3      -10.332917
    4      -10.051110
    5       -4.565822
    6       -4.360381
    7       -4.224758
    8       -3.278145
    9       -2.793382
   10       -2.741123
   11       -2.738299
   12       -2.435019
   13       -1.815943
   14       -1.579772
   15       -1.216234
   16       -0.598070
   17       -0.552203
   18       -0.026228
   19        1.258647
   20        1.710520
   21        2.023980
   22        2.061996
   23        2.257244
   24        2.363256
 
  0.3055556E+00  0.2777778E-01  0.1262379E-14  0.6172840E-02
    1      -11.613831
    2      -10.950985
    3      -10.283477
    4      -10.013902
    5       -4.377242
    6       -4.311583
    7       -4.031750
    8       -3.603338
    9       -3.100383
   10       -2.848203
   11       -2.831191
   12       -2.719738
   13       -2.208571
   14       -1.622602
   15       -1.285350
   16       -0.679167
   17       -0.551945
   18        0.044660
   19        1.162248
   20        1.470777
   21        1.954923
   22        1.974628
   23        2.010559
   24        2.526009
 
  0.3611111E+00  0.2777778E-01  0.1262379E-14  0.6172840E-02
    1      -11.321985
    2      -10.742953
    3      -10.283686
    4      -10.014119
    5       -4.377016
    6       -4.311317
    7       -4.006292
    8       -3.603480
    9       -3.270943
   10       -3.097937
   11       -2.848016
   12       -2.831168
   13       -2.481309
   14       -1.622774
   15       -1.545273
   16       -0.822487
   17       -0.462402
   18        0.044802
   19        1.161994
   20        1.331385
   21        1.821975
   22        1.954979
   23        2.074947
   24        2.525629
 
  0.4166667E+00  0.2777778E-01  0.1262379E-14  0.6172840E-02
    1      -11.023832
    2      -10.532491
    3      -10.357332
    4      -10.066690
    5       -4.472133
    6       -4.312163
    7       -4.205566
    8       -3.511960
    9       -3.274614
   10       -3.186764
   11       -2.822909
   12       -2.822903
   13       -2.638891
   14       -1.909778
   15       -1.551492
   16       -1.010026
   17       -0.375073
   18       -0.051995
   19        1.277216
   20        1.354518
   21        1.745973
   22        2.019557
   23        2.143126
   24        2.312347
 
  0.4722222E+00  0.2777778E-01  0.1262379E-14  0.6172840E-02
    1      -10.744928
    2      -10.514425
    3      -10.337382
    4      -10.176800
    5       -4.517484
    6       -4.415207
    7       -4.148548
    8       -3.876648
    9       -3.055329
   10       -3.013252
   11       -2.786872
   12       -2.731657
   13       -2.704360
   14       -2.321169
   15       -1.407639
   16       -1.215779
   17       -0.295624
   18       -0.185772
   19        1.430291
   20        1.487662
   21        1.735326
   22        1.983976
   23        2.102205
   24        2.155308
 
 -0.4722222E+00  0.2777778E-01  0.1262379E-14  0.6172840E-02
    1      -10.744928
    2      -10.514425
    3      -10.337382
    4      -10.176800
    5       -4.517484
    6       -4.415207
    7       -4.148548
    8       -3.876648
    9       -3.055329
   10       -3.013252
   11       -2.786872
   12       -2.731657
   13       -2.704360
   14       -2.321169
   15       -1.407639
   16       -1.215779
   17       -0.295624
   18       -0.185772
   19        1.430291
   20        1.487662
   21        1.735326
   22        1.983976
   23        2.102205
   24        2.155308
 
 -0.4166667E+00  0.2777778E-01  0.1262379E-14  0.6172840E-02
    1      -11.023832
    2      -10.532491
    3      -10.357332
    4      -10.066690
    5       -4.472133
    6       -4.312163
    7       -4.205566
    8       -3.511960
    9       -3.274614
   10       -3.186764
   11       -2.822909
   12       -2.822903
   13       -2.638891
   14       -1.909778
   15       -1.551492
   16       -1.010026
   17       -0.375073
   18       -0.051995
   19        1.277216
   20        1.354518
   21        1.745973
   22        2.019557
   23        2.143126
   24        2.312347
 
 -0.3611111E+00  0.2777778E-01  0.1262379E-14  0.6172840E-02
    1      -11.321985
    2      -10.742953
    3      -10.283686
    4      -10.014119
    5       -4.377016
    6       -4.311317
    7       -4.006292
    8       -3.603480
    9       -3.270943
   10       -3.097937
   11       -2.848016
   12       -2.831168
   13       -2.481309
   14       -1.622774
   15       -1.545273
   16       -0.822487
   17       -0.462402
   18        0.044802
   19        1.161994
   20        1.331385
   21        1.821975
   22        1.954979
   23        2.074947
   24        2.525629
 
 -0.3055556E+00  0.2777778E-01  0.1262379E-14  0.6172840E-02
    1      -11.613831
    2      -10.950985
    3      -10.283477
    4      -10.013902
    5       -4.377242
    6       -4.311583
    7       -4.031750
    8       -3.603338
    9       -3.100383
   10       -2.848203
   11       -2.831191
   12       -2.719738
   13       -2.208571
   14       -1.622602
   15       -1.285350
   16       -0.679167
   17       -0.551945
   18        0.044660
   19        1.162248
   20        1.470777
   21        1.954923
   22        1.974628
   23        2.010559
   24        2.526009
 
 -0.2500000E+00  0.2777778E-01  0.1262379E-14  0.6172840E-02
    1      -11.879862
    2      -11.142253
    3      -10.332917
    4      -10.051110
    5       -4.565822
    6       -4.360381
    7       -4.224758
    8       -3.278145
    9       -2.793382
   10       -2.741123
   11       -2.738299
   12       -2.435019
   13       -1.815943
   14       -1.579772
   15       -1.216234
   16       -0.598070
   17       -0.552203
   18       -0.026228
   19        1.258647
   20        1.710520
   21        2.023980
   22        2.061996
   23        2.257244
   24        2.363256
 
 -0.1944444E+00  0.2777778E-01  0.1262379E-14  0.6172840E-02
    1      -12.106089
    2      -11.305946
    3      -10.405255
    4      -10.106950
    5       -4.828004
    6       -4.439742
    7       -4.360677
    8       -3.145450
    9       -2.669382
   10       -2.352525
   11       -2.311870
   12       -2.195121
   13       -1.532370
   14       -1.418928
   15       -1.304781
   16       -0.586341
   17       -0.476498
   18       -0.099674
   19        1.377085
   20        2.048295
   21        2.141739
   22        2.172890
   23        2.308053
   24        2.624222
 
 -0.1388889E+00  0.2777778E-01  0.1262379E-14  0.6172840E-02
    1      -12.282948
    2      -11.434470
    3      -10.477915
    4      -10.164115
    5       -5.039641
    6       -4.624182
    7       -4.381795
    8       -3.161057
    9       -2.499009
   10       -2.006427
   11       -1.970438
   12       -1.701133
   13       -1.507806
   14       -1.426104
   15       -1.109690
   16       -0.636346
   17       -0.419039
   18       -0.146189
   19        1.462142
   20        1.939994
   21        2.467467
   22        2.490000
   23        2.698854
   24        2.980104
 
 -0.8333333E-01  0.2777778E-01  0.1262379E-14  0.6172840E-02
    1      -12.404046
    2      -11.522736
    3      -10.534687
    4      -10.209347
    5       -5.185799
    6       -4.756134
    7       -4.408738
    8       -3.196521
    9       -2.330740
   10       -1.772308
   11       -1.747407
   12       -1.522473
   13       -1.512263
   14       -1.121724
   15       -0.915782
   16       -0.722669
   17       -0.395419
   18       -0.177751
   19        1.479500
   20        1.817868
   21        2.832910
   22        2.971516
   23        3.215641
   24        3.242140
 
 -0.2777778E-01  0.2777778E-01  0.1262379E-14  0.6172840E-02
    1      -12.465517
    2      -11.567601
    3      -10.565474
    4      -10.234049
    5       -5.260197
    6       -4.824538
    7       -4.426271
    8       -3.219619
    9       -2.222033
   10       -1.643099
   11       -1.607978
   12       -1.574341
   13       -1.528710
   14       -0.826606
   15       -0.796703
   16       -0.729040
   17       -0.389571
   18       -0.221704
   19        1.453304
   20        1.780359
   21        3.103276
   22        3.166537
   23        3.337487
   24        3.372310
 
  0.2777778E-01  0.8333333E-01  0.1262379E-14  0.6172840E-02
    1      -12.444949
    2      -11.552578
    3      -10.610453
    4      -10.263194
    5       -5.192301
    6       -4.801547
    7       -4.369371
    8       -3.227134
    9       -2.207092
   10       -1.689481
   11       -1.654068
   12       -1.558030
   13       -1.518506
   14       -0.857372
   15       -0.766884
   16       -0.759281
   17       -0.390999
   18       -0.245546
   19        1.470564
   20        1.752766
   21        3.005136
   22        3.183709
   23        3.201365
   24        3.311021
 
  0.8333333E-01  0.8333333E-01  0.1262379E-14  0.6172840E-02
    1      -12.383680
    2      -11.507873
    3      -10.578449
    4      -10.237880
    5       -5.121311
    6       -4.733679
    7       -4.352764
    8       -3.201787
    9       -2.324348
   10       -1.810946
   11       -1.792768
   12       -1.505229
   13       -1.492356
   14       -1.139983
   15       -0.936564
   16       -0.713370
   17       -0.398322
   18       -0.201315
   19        1.491502
   20        1.781874
   21        2.759766
   22        2.868481
   23        3.128846
   24        3.212822
 
  0.1388889E+00  0.8333333E-01  0.1262379E-14  0.6172840E-02
    1      -12.263005
    2      -11.419962
    3      -10.519176
    4      -10.191356
    5       -4.983181
    6       -4.603005
    7       -4.328412
    8       -3.160462
    9       -2.500757
   10       -2.051175
   11       -2.006889
   12       -1.706322
   13       -1.478354
   14       -1.406673
   15       -1.104571
   16       -0.663165
   17       -0.425224
   18       -0.171688
   19        1.480370
   20        1.885116
   21        2.413501
   22        2.433333
   23        2.675773
   24        2.966854
 
  0.1944444E+00  0.8333333E-01  0.1262379E-14  0.6172840E-02
    1      -12.086853
    2      -11.292022
    3      -10.442610
    4      -10.132060
    5       -4.787735
    6       -4.421067
    7       -4.313090
    8       -3.129504
    9       -2.674099
   10       -2.397532
   11       -2.309438
   12       -2.239216
   13       -1.498695
   14       -1.386323
   15       -1.280210
   16       -0.645140
   17       -0.488029
   18       -0.129884
   19        1.405811
   20        1.996750
   21        2.070528
   22        2.181921
   23        2.300613
   24        2.633143
 
  0.2500000E+00  0.8333333E-01  0.1262379E-14  0.6172840E-02
    1      -11.861676
    2      -11.129221
    3      -10.364831
    4      -10.073101
    5       -4.560176
    6       -4.323444
    7       -4.211106
    8       -3.215639
    9       -2.794494
   10       -2.786952
   11       -2.745368
   12       -2.497313
   13       -1.756823
   14       -1.548061
   15       -1.180938
   16       -0.672681
   17       -0.569980
   18       -0.061808
   19        1.297239
   20        1.686840
   21        2.068965
   22        2.069604
   23        2.274932
   24        2.282979
 
  0.3055556E+00  0.8333333E-01  0.1262379E-14  0.6172840E-02
    1      -11.597202
    2      -10.939288
    3      -10.308405
    4      -10.031702
    5       -4.383786
    6       -4.355305
    7       -4.030612
    8       -3.470081
    9       -3.143413
   10       -2.840362
   11       -2.832397
   12       -2.802189
   13       -2.127127
   14       -1.597792
   15       -1.236994
   16       -0.751751
   17       -0.567967
   18        0.008006
   19        1.205399
   20        1.475825
   21        1.976582
   22        1.984240
   23        2.078582
   24        2.448630
 
  0.3611111E+00  0.8333333E-01  0.1262379E-14  0.6172840E-02
    1      -11.307620
    2      -10.733201
    3      -10.300392
    4      -10.026779
    5       -4.424849
    6       -4.371628
    7       -4.035753
    8       -3.456418
    9       -3.297398
   10       -3.175255
   11       -2.829286
   12       -2.809244
   13       -2.403861
   14       -1.608001
   15       -1.478812
   16       -0.881518
   17       -0.468480
   18        0.018501
   19        1.197259
   20        1.350812
   21        1.820828
   22        1.991037
   23        2.152445
   24        2.468396
 
  0.4166667E+00  0.8333333E-01  0.1262379E-14  0.6172840E-02
    1      -11.012781
    2      -10.525489
    3      -10.365407
    4      -10.073701
    5       -4.559758
    6       -4.322875
    7       -4.257955
    8       -3.570402
    9       -3.215922
   10       -3.209573
   11       -2.793927
   12       -2.745129
   13       -2.577885
   14       -1.814072
   15       -1.548526
   16       -1.051529
   17       -0.372504
   18       -0.061443
   19        1.296654
   20        1.369426
   21        1.742093
   22        2.069190
   23        2.221601
   24        2.282119
 
  0.4722222E+00  0.8333333E-01  0.1262379E-14  0.6172840E-02
    1      -10.738608
    2      -10.514543
    3      -10.334124
    4      -10.178294
    5       -4.590285
    6       -4.478514
    7       -4.174537
    8       -3.918002
    9       -3.093288
   10       -3.062832
   11       -2.748640
   12       -2.683623
   13       -2.541010
   14       -2.188326
   15       -1.417599
   16       -1.240429
   17       -0.289803
   18       -0.183656
   19        1.437748
   20        1.492594
   21        1.732898
   22        1.972792
   23        2.164476
   24        2.228050
 
 -0.4722222E+00  0.8333333E-01  0.1262379E-14  0.6172840E-02
    1      -10.738608
    2      -10.514543
    3      -10.334124
    4      -10.178294
    5       -4.590285
    6       -4.478514
    7       -4.174537
    8       -3.918002
    9       -3.093288
   10       -3.062832
   11       -2.748640
   12       -2.683623
   13       -2.541010
   14       -2.188326
   15       -1.417599
   16       -1.240429
   17       -0.289803
   18       -0.183656
   19        1.437748
   20        1.492594
   21        1.732898
   22        1.972792
   23        2.164476
   24        2.228050
 
 -0.4166667E+00  0.8333333E-01  0.1262379E-14  0.6172840E-02
    1      -11.012781
    2      -10.525489
    3      -10.365407
    4      -10.073701
    5       -4.559758
    6       -4.322875
    7       -4.257955
    8       -3.570402
    9       -3.215922
   10       -3.209573
   11       -2.793927
   12       -2.745129
   13       -2.577885
   14       -1.814072
   15       -1.548526
   16       -1.051529
   17       -0.372504
   18       -0.061443
   19        1.296654
   20        1.369426
   21        1.742093
   22        2.069190
   23        2.221601
   24        2.282119
 
 -0.3611111E+00  0.8333333E-01  0.1262379E-14  0.6172840E-02
    1      -11.307620
    2      -10.733201
    3      -10.300392
    4      -10.026779
    5       -4.424849
    6       -4.371628
    7       -4.035753
    8       -3.456418
    9       -3.297398
   10       -3.175255
   11       -2.829286
   12       -2.809244
   13       -2.403861
   14       -1.608001
   15       -1.478812
   16       -0.881518
   17       -0.468480
   18        0.018501
   19        1.197259
   20        1.350812
   21        1.820828
   22        1.991037
   23        2.152445
   24        2.468396
 
 -0.3055556E+00  0.8333333E-01  0.1262379E-14  0.6172840E-02
    1      -11.597202
    2      -10.939288
    3      -10.308405
    4      -10.031702
    5       -4.383786
    6       -4.355305
    7       -4.030612
    8       -3.470081
    9       -3.143413
   10       -2.840362
   11       -2.832397
   12       -2.802189
   13       -2.127127
   14       -1.597792
   15       -1.236994
   16       -0.751751
   17       -0.567967
   18        0.008006
   19        1.205399
   20        1.475825
   21        1.976582
   22        1.984240
   23        2.078581
   24        2.448630
 
 -0.2500000E+00  0.8333333E-01  0.1262379E-14  0.6172840E-02
    1      -11.861676
    2      -11.129221
    3      -10.364831
    4      -10.073101
    5       -4.560176
    6       -4.323444
    7       -4.211106
    8       -3.215639
    9       -2.794494
   10       -2.786952
   11       -2.745368
   12       -2.497313
   13       -1.756823
   14       -1.548061
   15       -1.180938
   16       -0.672681
   17       -0.569980
   18       -0.061808
   19        1.297239
   20        1.686840
   21        2.068965
   22        2.069604
   23        2.274932
   24        2.282978
 
 -0.1944444E+00  0.8333333E-01  0.1262379E-14  0.6172840E-02
    1      -12.086853
    2      -11.292022
    3      -10.442610
    4      -10.132060
    5       -4.787735
    6       -4.421067
    7       -4.313090
    8       -3.129504
    9       -2.674099
   10       -2.397533
   11       -2.309438
   12       -2.239216
   13       -1.498695
   14       -1.386323
   15       -1.280210
   16       -0.645140
   17       -0.488029
   18       -0.129884
   19        1.405811
   20        1.996750
   21        2.070528
   22        2.181921
   23        2.300613
   24        2.633143
 
 -0.1388889E+00  0.8333333E-01  0.1262379E-14  0.6172840E-02
    1      -12.263005
    2      -11.419962
    3      -10.519176
    4      -10.191356
    5       -4.983181
    6       -4.603005
    7       -4.328412
    8       -3.160462
    9       -2.500757
   10       -2.051175
   11       -2.006889
   12       -1.706322
   13       -1.478354
   14       -1.406673
   15       -1.104571
   16       -0.663165
   17       -0.425224
   18       -0.171688
   19        1.480370
   20        1.885116
   21        2.413501
   22        2.433333
   23        2.675773
   24        2.966854
 
 -0.8333333E-01  0.8333333E-01  0.1262379E-14  0.6172840E-02
    1      -12.383680
    2      -11.507873
    3      -10.578449
    4      -10.237880
    5       -5.121311
    6       -4.733679
    7       -4.352764
    8       -3.201787
    9       -2.324348
   10       -1.810946
   11       -1.792768
   12       -1.505229
   13       -1.492356
   14       -1.139983
   15       -0.936564
   16       -0.713370
   17       -0.398322
   18       -0.201315
   19        1.491502
   20        1.781874
   21        2.759766
   22        2.868481
   23        3.128820
   24        3.223487
 
 -0.2777778E-01  0.8333333E-01  0.1262379E-14  0.6172840E-02
    1      -12.444949
    2      -11.552578
    3      -10.610453
    4      -10.263194
    5       -5.192301
    6       -4.801547
    7       -4.369371
    8       -3.227134
    9       -2.207092
   10       -1.689481
   11       -1.654068
   12       -1.558030
   13       -1.518506
   14       -0.857372
   15       -0.766883
   16       -0.759281
   17       -0.390999
   18       -0.245546
   19        1.470564
   20        1.752766
   21        3.005136
   22        3.183709
   23        3.201365
   24        3.309502
 
  0.2777778E-01  0.1388889E+00  0.1262379E-14  0.6172840E-02
    1      -12.404007
    2      -11.522693
    3      -10.696030
    4      -10.319171
    5       -5.062218
    6       -4.756099
    7       -4.258818
    8       -3.244047
    9       -2.177445
   10       -1.772087
   11       -1.745875
   12       -1.524117
   13       -1.497469
   14       -0.916941
   15       -0.810766
   16       -0.721722
   17       -0.395345
   18       -0.291424
   19        1.504291
   20        1.707546
   21        2.833747
   22        2.973187
   23        3.217235
   24        3.224110
 
  0.8333333E-01  0.1388889E+00  0.1262379E-14  0.6172840E-02
    1      -12.343153
    2      -11.478313
    3      -10.661824
    4      -10.292708
    5       -4.997849
    6       -4.689316
    7       -4.243864
    8       -3.214555
    9       -2.311222
   10       -1.880240
   11       -1.880103
   12       -1.472814
   13       -1.452777
   14       -1.171254
   15       -1.000635
   16       -0.681333
   17       -0.405423
   18       -0.243653
   19        1.507525
   20        1.729176
   21        2.629108
   22        2.698081
   23        3.032147
   24        3.120763
 
  0.1388889E+00  0.1388889E+00  0.1262379E-14  0.6172840E-02
    1      -12.223328
    2      -11.391106
    3      -10.598005
    4      -10.243748
    5       -4.875368
    6       -4.561193
    7       -4.224311
    8       -3.162599
    9       -2.502590
   10       -2.135642
   11       -2.070657
   12       -1.712590
   13       -1.421417
   14       -1.372019
   15       -1.128837
   16       -0.689070
   17       -0.438307
   18       -0.215097
   19        1.505305
   20        1.799379
   21        2.289975
   22        2.368215
   23        2.629356
   24        2.911712
 
  0.1944444E+00  0.1388889E+00  0.1262379E-14  0.6172840E-02
    1      -12.048594
    2      -11.264339
    3      -10.514285
    4      -10.180466
    5       -4.711176
    6       -4.384320
    7       -4.220283
    8       -3.105184
    9       -2.681014
   10       -2.481180
   11       -2.313353
   12       -2.297629
   13       -1.434664
   14       -1.349837
   15       -1.237060
   16       -0.739960
   17       -0.510745
   18       -0.180292
   19        1.451551
   20        1.915468
   21        1.952136
   22        2.191337
   23        2.285137
   24        2.621955
 
  0.2500000E+00  0.1388889E+00  0.1262379E-14  0.6172840E-02
    1      -11.825532
    2      -11.103335
    3      -10.426454
    4      -10.115657
    5       -4.545690
    6       -4.251741
    7       -4.184818
    8       -3.108334
    9       -2.870396
   10       -2.793998
   11       -2.749007
   12       -2.594761
   13       -1.672320
   14       -1.488338
   15       -1.117310
   16       -0.802147
   17       -0.604952
   18       -0.120603
   19        1.361039
   20        1.650226
   21        2.082531
   22        2.143077
   23        2.146227
   24        2.290325
 
  0.3055556E+00  0.1388889E+00  0.1262379E-14  0.6172840E-02
    1      -11.564197
    2      -10.916090
    3      -10.356956
    4      -10.066316
    5       -4.472851
    6       -4.312682
    7       -4.031506
    8       -3.274191
    9       -3.216542
   10       -2.921333
   11       -2.823089
   12       -2.822747
   13       -2.013562
   14       -1.551185
   15       -1.149661
   16       -0.879344
   17       -0.599891
   18       -0.052453
   19        1.277793
   20        1.485138
   21        1.996316
   22        2.019482
   23        2.194038
   24        2.313080
 
  0.3611111E+00  0.1388889E+00  0.1262379E-14  0.6172840E-02
    1      -11.279188
    2      -10.713893
    3      -10.333326
    4      -10.051552
    5       -4.565877
    6       -4.360093
    7       -4.096501
    8       -3.334097
    9       -3.291759
   10       -3.278115
   11       -2.792812
   12       -2.737887
   13       -2.289357
   14       -1.580103
   15       -1.361484
   16       -0.986328
   17       -0.480573
   18       -0.026197
   19        1.258397
   20        1.386958
   21        1.816675
   22        2.062203
   23        2.289945
   24        2.362774
 
  0.4166667E+00  0.1388889E+00  0.1262379E-14  0.6172840E-02
    1      -10.991014
    2      -10.511687
    3      -10.381616
    4      -10.087518
    5       -4.691371
    6       -4.354333
    7       -4.340759
    8       -3.666023
    9       -3.239536
   10       -3.164587
   11       -2.740147
   12       -2.568703
   13       -2.478829
   14       -1.648498
   15       -1.542370
   16       -1.125998
   17       -0.368211
   18       -0.078309
   19        1.331926
   20        1.398073
   21        1.733738
   22        2.166671
   23        2.223525
   24        2.366897
 
  0.4722222E+00  0.1388889E+00  0.1262379E-14  0.6172840E-02
    1      -10.726346
    2      -10.515104
    3      -10.327759
    4      -10.181334
    5       -4.710814
    6       -4.589349
    7       -4.219630
    8       -3.988784
    9       -3.138103
   10       -3.105630
   11       -2.680058
   12       -2.600708
   13       -2.297175
   14       -1.971135
   15       -1.435300
   16       -1.284886
   17       -0.279099
   18       -0.179753
   19        1.450999
   20        1.500973
   21        1.728874
   22        1.951093
   23        2.285629
   24        2.367185
 
 -0.4722222E+00  0.1388889E+00  0.1262379E-14  0.6172840E-02
    1      -10.726346
    2      -10.515104
    3      -10.327759
    4      -10.181334
    5       -4.710814
    6       -4.589349
    7       -4.219630
    8       -3.988784
    9       -3.138103
   10       -3.105630
   11       -2.680058
   12       -2.600708
   13       -2.297175
   14       -1.971135
   15       -1.435300
   16       -1.284886
   17       -0.279099
   18       -0.179753
   19        1.450999
   20        1.500973
   21        1.728874
   22        1.951093
   23        2.285629
   24        2.367185
 
 -0.4166667E+00  0.1388889E+00  0.1262379E-14  0.6172840E-02
    1      -10.991014
    2      -10.511687
    3      -10.381616
    4      -10.087518
    5       -4.691371
    6       -4.354333
    7       -4.340759
    8       -3.666023
    9       -3.239536
   10       -3.164587
   11       -2.740147
   12       -2.568703
   13       -2.478829
   14       -1.648498
   15       -1.542370
   16       -1.125998
   17       -0.368211
   18       -0.078309
   19        1.331926
   20        1.398073
   21        1.733738
   22        2.166671
   23        2.223525
   24        2.366897
 
 -0.3611111E+00  0.1388889E+00  0.1262379E-14  0.6172840E-02
    1      -11.279188
    2      -10.713893
    3      -10.333326
    4      -10.051552
    5       -4.565877
    6       -4.360093
    7       -4.096501
    8       -3.334097
    9       -3.291759
   10       -3.278115
   11       -2.792812
   12       -2.737887
   13       -2.289357
   14       -1.580103
   15       -1.361484
   16       -0.986328
   17       -0.480573
   18       -0.026197
   19        1.258397
   20        1.386958
   21        1.816675
   22        2.062203
   23        2.289945
   24        2.362774
 
 -0.3055556E+00  0.1388889E+00  0.1262379E-14  0.6172840E-02
    1      -11.564197
    2      -10.916090
    3      -10.356956
    4      -10.066316
    5       -4.472851
    6       -4.312682
    7       -4.031506
    8       -3.274191
    9       -3.216542
   10       -2.921333
   11       -2.823089
   12       -2.822747
   13       -2.013562
   14       -1.551185
   15       -1.149661
   16       -0.879344
   17       -0.599891
   18       -0.052453
   19        1.277793
   20        1.485138
   21        1.996316
   22        2.019482
   23        2.194038
   24        2.313080
 
 -0.2500000E+00  0.1388889E+00  0.1262379E-14  0.6172840E-02
    1      -11.825532
    2      -11.103335
    3      -10.426454
    4      -10.115657
    5       -4.545690
    6       -4.251741
    7       -4.184818
    8       -3.108334
    9       -2.870396
   10       -2.793998
   11       -2.749007
   12       -2.594761
   13       -1.672320
   14       -1.488338
   15       -1.117310
   16       -0.802147
   17       -0.604952
   18       -0.120603
   19        1.361039
   20        1.650226
   21        2.082531
   22        2.143077
   23        2.146227
   24        2.290325
 
 -0.1944444E+00  0.1388889E+00  0.1262379E-14  0.6172840E-02
    1      -12.048594
    2      -11.264339
    3      -10.514285
    4      -10.180466
    5       -4.711176
    6       -4.384320
    7       -4.220283
    8       -3.105184