       N       E                     dE             d eps       ncg     rms          rms(c)
DAV:   1     0.187228359210E+03    0.18723E+03   -0.95948E+03  7776   0.794E+02
DAV:   2    -0.179372013575E+02   -0.20517E+03   -0.19993E+03 11608   0.177E+02
DAV:   3    -0.368048791354E+02   -0.18868E+02   -0.18680E+02 10320   0.597E+01
DAV:   4    -0.374910959518E+02   -0.68622E+00   -0.68345E+00 12464   0.129E+01
DAV:   5    -0.375012088216E+02   -0.10113E-01   -0.10107E-01 11048   0.175E+00    0.214E+01
DAV:   6    -0.366710705300E+02    0.83014E+00   -0.73699E+00 10208   0.120E+01    0.922E+00
DAV:   7    -0.366336187333E+02    0.37452E-01   -0.87352E+00  9864   0.136E+01    0.743E+00
DAV:   8    -0.360964056493E+02    0.53721E+00   -0.14800E+00 10440   0.583E+00    0.251E+00
DAV:   9    -0.360704044479E+02    0.26001E-01   -0.34794E-01 10864   0.271E+00    0.684E-01
DAV:  10    -0.360657797146E+02    0.46247E-02   -0.27490E-02 11000   0.890E-01    0.251E-01
DAV:  11    -0.360650441102E+02    0.73560E-03   -0.51431E-03 11088   0.347E-01    0.251E-01
DAV:  12    -0.360645390857E+02    0.50502E-03   -0.12313E-03 10912   0.171E-01    0.124E-01
DAV:  13    -0.360643866646E+02    0.15242E-03   -0.55865E-04 11320   0.965E-02    0.769E-02
DAV:  14    -0.360640648288E+02    0.32184E-03   -0.50598E-04 10224   0.922E-02    0.427E-02
DAV:  15    -0.360641084370E+02   -0.43608E-04   -0.86659E-05 11056   0.429E-02    0.335E-02
DAV:  16    -0.360642452477E+02   -0.13681E-03   -0.16342E-05  9176   0.196E-02    0.384E-02
DAV:  17    -0.360644000698E+02   -0.15482E-03   -0.21269E-05  9224   0.171E-02    0.232E-02
DAV:  18    -0.360645038140E+02   -0.10374E-03   -0.10613E-05 10672   0.140E-02    0.691E-03
DAV:  19    -0.360645783504E+02   -0.74536E-04   -0.25477E-06  7136   0.628E-03    0.916E-03
DAV:  20    -0.360645920044E+02   -0.13654E-04   -0.48248E-07  6496   0.278E-03    0.465E-03
DAV:  21    -0.360645950349E+02   -0.30305E-05   -0.15684E-07  5704   0.139E-03    0.183E-03
DAV:  22    -0.360645957557E+02   -0.72084E-06   -0.99405E-08  5168   0.118E-03
   1 F= -.36064596E+02 E0= -.36060911E+02  d E =-.360646E+02
       N       E                     dE             d eps       ncg     rms          rms(c)
DAV:   1    -0.360646057158E+02   -0.10681E-04   -0.41165E-04  8176   0.889E-02    0.164E-02
DAV:   2    -0.360646062947E+02   -0.57895E-06   -0.19739E-05  9000   0.216E-02    0.985E-03
DAV:   3    -0.360646058706E+02    0.42406E-06   -0.54524E-07  4472   0.456E-03
   2 F= -.36064606E+02 E0= -.36060920E+02  d E =-.101150E-04
       N       E                     dE             d eps       ncg     rms          rms(c)
DAV:   1    -0.360646061886E+02    0.10610E-06   -0.10451E-04  8272   0.449E-02    0.890E-03
DAV:   2    -0.360646062049E+02   -0.16297E-07   -0.54708E-06  8864   0.104E-02
   3 F= -.36064606E+02 E0= -.36060920E+02  d E =-.104492E-04
