<?xml version="1.0" encoding="ISO-8859-1"?>
<modeling>
 <generator>
  <i name="program" type="string">vasp </i>
  <i name="version" type="string">5.3.5  </i>
  <i name="subversion" type="string">31Mar14 (build Mar 18 2017 11:34:20) complex                          parallel </i>
  <i name="platform" type="string">LinuxIFC </i>
  <i name="date" type="string">2017 10 27 </i>
  <i name="time" type="string">22:02:29 </i>
 </generator>
 <incar>
  <i type="string" name="SYSTEM"> 2D MoTe2 in a box</i>
  <i type="string" name="PREC">accurate</i>
  <i type="string" name="ALGO"> Normal</i>
  <i type="int" name="NELMDL">    -5</i>
  <i type="int" name="IBRION">     2</i>
  <i name="EDIFF">      0.00000100</i>
  <i type="int" name="NSW">  1000</i>
  <i type="int" name="ISIF">     2</i>
  <i type="int" name="ISYM">     0</i>
  <i name="ENCUT">    350.00000000</i>
  <i name="POTIM">      0.50000000</i>
  <i name="NELECT">     35.98000000</i>
  <i type="logical" name="LREAL"> F  </i>
  <i type="int" name="ISMEAR">    -1</i>
  <i name="SIGMA">      0.07759564</i>
  <i type="int" name="NWRITE">     3</i>
  <i type="logical" name="LWAVE"> F  </i>
  <i type="logical" name="LCHARG"> F  </i>
 </incar>
 <kpoints>
  <generation param="Monkhorst-Pack">
   <v type="int" name="divisions">      18       18        1 </v>
   <v name="usershift">      0.00000000       0.00000000       0.00000000 </v>
   <v name="genvec1">      0.05555556       0.00000000       0.00000000 </v>
   <v name="genvec2">      0.00000000       0.05555556       0.00000000 </v>
   <v name="genvec3">      0.00000000       0.00000000       1.00000000 </v>
   <v name="shift">      0.50000000       0.50000000       0.00000000 </v>
  </generation>
  <varray name="kpointlist" >
   <v>       0.02777778       0.02777778       0.00000000 </v>
   <v>       0.08333333       0.02777778       0.00000000 </v>
   <v>       0.13888889       0.02777778       0.00000000 </v>
   <v>       0.19444444       0.02777778       0.00000000 </v>
   <v>       0.25000000       0.02777778       0.00000000 </v>
   <v>       0.30555556       0.02777778       0.00000000 </v>
   <v>       0.36111111       0.02777778       0.00000000 </v>
   <v>       0.41666667       0.02777778       0.00000000 </v>
   <v>       0.47222222       0.02777778       0.00000000 </v>
   <v>      -0.47222222       0.02777778       0.00000000 </v>
   <v>      -0.41666667       0.02777778       0.00000000 </v>
   <v>      -0.36111111       0.02777778       0.00000000 </v>
   <v>      -0.30555556       0.02777778       0.00000000 </v>
   <v>      -0.25000000       0.02777778       0.00000000 </v>
   <v>      -0.19444444       0.02777778       0.00000000 </v>
   <v>      -0.13888889       0.02777778       0.00000000 </v>
   <v>      -0.08333333       0.02777778       0.00000000 </v>
   <v>      -0.02777778       0.02777778       0.00000000 </v>
   <v>       0.02777778       0.08333333       0.00000000 </v>
   <v>       0.08333333       0.08333333       0.00000000 </v>
   <v>       0.13888889       0.08333333       0.00000000 </v>
   <v>       0.19444444       0.08333333       0.00000000 </v>
   <v>       0.25000000       0.08333333       0.00000000 </v>
   <v>       0.30555556       0.08333333       0.00000000 </v>
   <v>       0.36111111       0.08333333       0.00000000 </v>
   <v>       0.41666667       0.08333333       0.00000000 </v>
   <v>       0.47222222       0.08333333       0.00000000 </v>
   <v>      -0.47222222       0.08333333       0.00000000 </v>
   <v>      -0.41666667       0.08333333       0.00000000 </v>
   <v>      -0.36111111       0.08333333       0.00000000 </v>
   <v>      -0.30555556       0.08333333       0.00000000 </v>
   <v>      -0.25000000       0.08333333       0.00000000 </v>
   <v>      -0.19444444       0.08333333       0.00000000 </v>
   <v>      -0.13888889       0.08333333       0.00000000 </v>
   <v>      -0.08333333       0.08333333       0.00000000 </v>
   <v>      -0.02777778       0.08333333       0.00000000 </v>
   <v>       0.02777778       0.13888889       0.00000000 </v>
   <v>       0.08333333       0.13888889       0.00000000 </v>
   <v>       0.13888889       0.13888889       0.00000000 </v>
   <v>       0.19444444       0.13888889       0.00000000 </v>
   <v>       0.25000000       0.13888889       0.00000000 </v>
   <v>       0.30555556       0.13888889       0.00000000 </v>
   <v>       0.36111111       0.13888889       0.00000000 </v>
   <v>       0.41666667       0.13888889       0.00000000 </v>
   <v>       0.47222222       0.13888889       0.00000000 </v>
   <v>      -0.47222222       0.13888889       0.00000000 </v>
   <v>      -0.41666667       0.13888889       0.00000000 </v>
   <v>      -0.36111111       0.13888889       0.00000000 </v>
   <v>      -0.30555556       0.13888889       0.00000000 </v>
   <v>      -0.25000000       0.13888889       0.00000000 </v>
   <v>      -0.19444444       0.13888889       0.00000000 </v>
   <v>      -0.13888889       0.13888889       0.00000000 </v>
   <v>      -0.08333333       0.13888889       0.00000000 </v>
   <v>      -0.02777778       0.13888889       0.00000000 </v>
   <v>       0.02777778       0.19444444       0.00000000 </v>
   <v>       0.08333333       0.19444444       0.00000000 </v>
   <v>       0.13888889       0.19444444       0.00000000 </v>
   <v>       0.19444444       0.19444444       0.00000000 </v>
   <v>       0.25000000       0.19444444       0.00000000 </v>
   <v>       0.30555556       0.19444444       0.00000000 </v>
   <v>       0.36111111       0.19444444       0.00000000 </v>
   <v>       0.41666667       0.19444444       0.00000000 </v>
   <v>       0.47222222       0.19444444       0.00000000 </v>
   <v>      -0.47222222       0.19444444       0.00000000 </v>
   <v>      -0.41666667       0.19444444       0.00000000 </v>
   <v>      -0.36111111       0.19444444       0.00000000 </v>
   <v>      -0.30555556       0.19444444       0.00000000 </v>
   <v>      -0.25000000       0.19444444       0.00000000 </v>
   <v>      -0.19444444       0.19444444       0.00000000 </v>
   <v>      -0.13888889       0.19444444       0.00000000 </v>
   <v>      -0.08333333       0.19444444       0.00000000 </v>
   <v>      -0.02777778       0.19444444       0.00000000 </v>
   <v>       0.02777778       0.25000000       0.00000000 </v>
   <v>       0.08333333       0.25000000       0.00000000 </v>
   <v>       0.13888889       0.25000000       0.00000000 </v>
   <v>       0.19444444       0.25000000       0.00000000 </v>
   <v>       0.25000000       0.25000000       0.00000000 </v>
   <v>       0.30555556       0.25000000       0.00000000 </v>
   <v>       0.36111111       0.25000000       0.00000000 </v>
   <v>       0.41666667       0.25000000       0.00000000 </v>
   <v>       0.47222222       0.25000000       0.00000000 </v>
   <v>      -0.47222222       0.25000000       0.00000000 </v>
   <v>      -0.41666667       0.25000000       0.00000000 </v>
   <v>      -0.36111111       0.25000000       0.00000000 </v>
   <v>      -0.30555556       0.25000000       0.00000000 </v>
   <v>      -0.25000000       0.25000000       0.00000000 </v>
   <v>      -0.19444444       0.25000000       0.00000000 </v>
   <v>      -0.13888889       0.25000000       0.00000000 </v>
   <v>      -0.08333333       0.25000000       0.00000000 </v>
   <v>      -0.02777778       0.25000000       0.00000000 </v>
   <v>       0.02777778       0.30555556       0.00000000 </v>
   <v>       0.08333333       0.30555556       0.00000000 </v>
   <v>       0.13888889       0.30555556       0.00000000 </v>
   <v>       0.19444444       0.30555556       0.00000000 </v>
   <v>       0.25000000       0.30555556       0.00000000 </v>
   <v>       0.30555556       0.30555556       0.00000000 </v>
   <v>       0.36111111       0.30555556       0.00000000 </v>
   <v>       0.41666667       0.30555556       0.00000000 </v>
   <v>       0.47222222       0.30555556       0.00000000 </v>
   <v>      -0.47222222       0.30555556       0.00000000 </v>
   <v>      -0.41666667       0.30555556       0.00000000 </v>
   <v>      -0.36111111       0.30555556       0.00000000 </v>
   <v>      -0.30555556       0.30555556       0.00000000 </v>
   <v>      -0.25000000       0.30555556       0.00000000 </v>
   <v>      -0.19444444       0.30555556       0.00000000 </v>
   <v>      -0.13888889       0.30555556       0.00000000 </v>
   <v>      -0.08333333       0.30555556       0.00000000 </v>
   <v>      -0.02777778       0.30555556       0.00000000 </v>
   <v>       0.02777778       0.36111111       0.00000000 </v>
   <v>       0.08333333       0.36111111       0.00000000 </v>
   <v>       0.13888889       0.36111111       0.00000000 </v>
   <v>       0.19444444       0.36111111       0.00000000 </v>
   <v>       0.25000000       0.36111111       0.00000000 </v>
   <v>       0.30555556       0.36111111       0.00000000 </v>
   <v>       0.36111111       0.36111111       0.00000000 </v>
   <v>       0.41666667       0.36111111       0.00000000 </v>
   <v>       0.47222222       0.36111111       0.00000000 </v>
   <v>      -0.47222222       0.36111111       0.00000000 </v>
   <v>      -0.41666667       0.36111111       0.00000000 </v>
   <v>      -0.36111111       0.36111111       0.00000000 </v>
   <v>      -0.30555556       0.36111111       0.00000000 </v>
   <v>      -0.25000000       0.36111111       0.00000000 </v>
   <v>      -0.19444444       0.36111111       0.00000000 </v>
   <v>      -0.13888889       0.36111111       0.00000000 </v>
   <v>      -0.08333333       0.36111111       0.00000000 </v>
   <v>      -0.02777778       0.36111111       0.00000000 </v>
   <v>       0.02777778       0.41666667       0.00000000 </v>
   <v>       0.08333333       0.41666667       0.00000000 </v>
   <v>       0.13888889       0.41666667       0.00000000 </v>
   <v>       0.19444444       0.41666667       0.00000000 </v>
   <v>       0.25000000       0.41666667       0.00000000 </v>
   <v>       0.30555556       0.41666667       0.00000000 </v>
   <v>       0.36111111       0.41666667       0.00000000 </v>
   <v>       0.41666667       0.41666667       0.00000000 </v>
   <v>       0.47222222       0.41666667       0.00000000 </v>
   <v>      -0.47222222       0.41666667       0.00000000 </v>
   <v>      -0.41666667       0.41666667       0.00000000 </v>
   <v>      -0.36111111       0.41666667       0.00000000 </v>
   <v>      -0.30555556       0.41666667       0.00000000 </v>
   <v>      -0.25000000       0.41666667       0.00000000 </v>
   <v>      -0.19444444       0.41666667       0.00000000 </v>
   <v>      -0.13888889       0.41666667       0.00000000 </v>
   <v>      -0.08333333       0.41666667       0.00000000 </v>
   <v>      -0.02777778       0.41666667       0.00000000 </v>
   <v>       0.02777778       0.47222222       0.00000000 </v>
   <v>       0.08333333       0.47222222       0.00000000 </v>
   <v>       0.13888889       0.47222222       0.00000000 </v>
   <v>       0.19444444       0.47222222       0.00000000 </v>
   <v>       0.25000000       0.47222222       0.00000000 </v>
   <v>       0.30555556       0.47222222       0.00000000 </v>
   <v>       0.36111111       0.47222222       0.00000000 </v>
   <v>       0.41666667       0.47222222       0.00000000 </v>
   <v>       0.47222222       0.47222222       0.00000000 </v>
   <v>      -0.47222222       0.47222222       0.00000000 </v>
   <v>      -0.41666667       0.47222222       0.00000000 </v>
   <v>      -0.36111111       0.47222222       0.00000000 </v>
   <v>      -0.30555556       0.47222222       0.00000000 </v>
   <v>      -0.25000000       0.47222222       0.00000000 </v>
   <v>      -0.19444444       0.47222222       0.00000000 </v>
   <v>      -0.13888889       0.47222222       0.00000000 </v>
   <v>      -0.08333333       0.47222222       0.00000000 </v>
   <v>      -0.02777778       0.47222222       0.00000000 </v>
  </varray>
  <varray name="weights" >
   <v>       0.00617284 </v>
   <v>       0.00617284 </v>
   <v>       0.00617284 </v>
   <v>       0.00617284 </v>
   <v>       0.00617284 </v>
   <v>       0.00617284 </v>
   <v>       0.00617284 </v>
   <v>       0.00617284 </v>
   <v>       0.00617284 </v>
   <v>       0.00617284 </v>
   <v>       0.00617284 </v>
   <v>       0.00617284 </v>
   <v>       0.00617284 </v>
   <v>       0.00617284 </v>
   <v>       0.00617284 </v>
   <v>       0.00617284 </v>
   <v>       0.00617284 </v>
   <v>       0.00617284 </v>
   <v>       0.00617284 </v>
   <v>       0.00617284 </v>
   <v>       0.00617284 </v>
   <v>       0.00617284 </v>
   <v>       0.00617284 </v>
   <v>       0.00617284 </v>
   <v>       0.00617284 </v>
   <v>       0.00617284 </v>
   <v>       0.00617284 </v>
   <v>       0.00617284 </v>
   <v>       0.00617284 </v>
   <v>       0.00617284 </v>
   <v>       0.00617284 </v>
   <v>       0.00617284 </v>
   <v>       0.00617284 </v>
   <v>       0.00617284 </v>
   <v>       0.00617284 </v>
   <v>       0.00617284 </v>
   <v>       0.00617284 </v>
   <v>       0.00617284 </v>
   <v>       0.00617284 </v>
   <v>       0.00617284 </v>
   <v>       0.00617284 </v>
   <v>       0.00617284 </v>
   <v>       0.00617284 </v>
   <v>       0.00617284 </v>
   <v>       0.00617284 </v>
   <v>       0.00617284 </v>
   <v>       0.00617284 </v>
   <v>       0.00617284 </v>
   <v>       0.00617284 </v>
   <v>       0.00617284 </v>
   <v>       0.00617284 </v>
   <v>       0.00617284 </v>
   <v>       0.00617284 </v>
   <v>       0.00617284 </v>
   <v>       0.00617284 </v>
   <v>       0.00617284 </v>
   <v>       0.00617284 </v>
   <v>       0.00617284 </v>
   <v>       0.00617284 </v>
   <v>       0.00617284 </v>
   <v>       0.00617284 </v>
   <v>       0.00617284 </v>
   <v>       0.00617284 </v>
   <v>       0.00617284 </v>
   <v>       0.00617284 </v>
   <v>       0.00617284 </v>
   <v>       0.00617284 </v>
   <v>       0.00617284 </v>
   <v>       0.00617284 </v>
   <v>       0.00617284 </v>
   <v>       0.00617284 </v>
   <v>       0.00617284 </v>
   <v>       0.00617284 </v>
   <v>       0.00617284 </v>
   <v>       0.00617284 </v>
   <v>       0.00617284 </v>
   <v>       0.00617284 </v>
   <v>       0.00617284 </v>
   <v>       0.00617284 </v>
   <v>       0.00617284 </v>
   <v>       0.00617284 </v>
   <v>       0.00617284 </v>
   <v>       0.00617284 </v>
   <v>       0.00617284 </v>
   <v>       0.00617284 </v>
   <v>       0.00617284 </v>
   <v>       0.00617284 </v>
   <v>       0.00617284 </v>
   <v>       0.00617284 </v>
   <v>       0.00617284 </v>
   <v>       0.00617284 </v>
   <v>       0.00617284 </v>
   <v>       0.00617284 </v>
   <v>       0.00617284 </v>
   <v>       0.00617284 </v>
   <v>       0.00617284 </v>
   <v>       0.00617284 </v>
   <v>       0.00617284 </v>
   <v>       0.00617284 </v>
   <v>       0.00617284 </v>
   <v>       0.00617284 </v>
   <v>       0.00617284 </v>
   <v>       0.00617284 </v>
   <v>       0.00617284 </v>
   <v>       0.00617284 </v>
   <v>       0.00617284 </v>
   <v>       0.00617284 </v>
   <v>       0.00617284 </v>
   <v>       0.00617284 </v>
   <v>       0.00617284 </v>
   <v>       0.00617284 </v>
   <v>       0.00617284 </v>
   <v>       0.00617284 </v>
   <v>       0.00617284 </v>
   <v>       0.00617284 </v>
   <v>       0.00617284 </v>
   <v>       0.00617284 </v>
   <v>       0.00617284 </v>
   <v>       0.00617284 </v>
   <v>       0.00617284 </v>
   <v>       0.00617284 </v>
   <v>       0.00617284 </v>
   <v>       0.00617284 </v>
   <v>       0.00617284 </v>
   <v>       0.00617284 </v>
   <v>       0.00617284 </v>
   <v>       0.00617284 </v>
   <v>       0.00617284 </v>
   <v>       0.00617284 </v>
   <v>       0.00617284 </v>
   <v>       0.00617284 </v>
   <v>       0.00617284 </v>
   <v>       0.00617284 </v>
   <v>       0.00617284 </v>
   <v>       0.00617284 </v>
   <v>       0.00617284 </v>
   <v>       0.00617284 </v>
   <v>       0.00617284 </v>
   <v>       0.00617284 </v>
   <v>       0.00617284 </v>
   <v>       0.00617284 </v>
   <v>       0.00617284 </v>
   <v>       0.00617284 </v>
   <v>       0.00617284 </v>
   <v>       0.00617284 </v>
   <v>       0.00617284 </v>
   <v>       0.00617284 </v>
   <v>       0.00617284 </v>
   <v>       0.00617284 </v>
   <v>       0.00617284 </v>
   <v>       0.00617284 </v>
   <v>       0.00617284 </v>
   <v>       0.00617284 </v>
   <v>       0.00617284 </v>
   <v>       0.00617284 </v>
   <v>       0.00617284 </v>
   <v>       0.00617284 </v>
   <v>       0.00617284 </v>
   <v>       0.00617284 </v>
   <v>       0.00617284 </v>
   <v>       0.00617284 </v>
   <v>       0.00617284 </v>
  </varray>
 </kpoints>
 <parameters>
  <separator name="general" >
   <i type="string" name="SYSTEM">2D MoTe2 in a box</i>
   <i type="logical" name="LCOMPAT"> F  </i>
  </separator>
  <separator name="electronic" >
   <i type="string" name="PREC">accura</i>
   <i name="ENMAX">    350.00000000</i>
   <i name="ENAUG">    368.79200000</i>
   <i name="EDIFF">      0.00000100</i>
   <i type="int" name="IALGO">    38</i>
   <i type="int" name="IWAVPR">    11</i>
   <i type="int" name="NBANDS">    24</i>
   <i name="NELECT">     35.98000000</i>
   <i type="int" name="TURBO">     0</i>
   <i type="int" name="IRESTART">     0</i>
   <i type="int" name="NREBOOT">     0</i>
   <i type="int" name="NMIN">     0</i>
   <i name="EREF">      0.00000000</i>
   <separator name="electronic smearing" >
    <i type="int" name="ISMEAR">    -1</i>
    <i name="SIGMA">      0.07759564</i>
    <i name="KSPACING">      0.50000000</i>
    <i type="logical" name="KGAMMA"> T  </i>
   </separator>
   <separator name="electronic projectors" >
    <i type="logical" name="LREAL"> F  </i>
    <v name="ROPT">      0.00000000      0.00000000</v>
    <i type="int" name="LMAXPAW">  -100</i>
    <i type="int" name="LMAXMIX">     2</i>
    <i type="logical" name="NLSPLINE"> F  </i>
   </separator>
   <separator name="electronic startup" >
    <i type="int" name="ISTART">     0</i>
    <i type="int" name="ICHARG">     2</i>
    <i type="int" name="INIWAV">     1</i>
   </separator>
   <separator name="electronic spin" >
    <i type="int" name="ISPIN">     1</i>
    <i type="logical" name="LNONCOLLINEAR"> F  </i>
    <v name="MAGMOM">      1.00000000      1.00000000      1.00000000      1.00000000      1.00000000      1.00000000</v>
    <i name="NUPDOWN">     -1.00000000</i>
    <i type="logical" name="LSORBIT"> F  </i>
    <v name="SAXIS">      0.00000000      0.00000000      1.00000000</v>
    <i type="logical" name="LSPIRAL"> F  </i>
    <v name="QSPIRAL">      0.00000000      0.00000000      0.00000000</v>
    <i type="logical" name="LZEROZ"> F  </i>
   </separator>
   <separator name="electronic exchange-correlation" >
    <i type="logical" name="LASPH"> F  </i>
    <i type="logical" name="LMETAGGA"> F  </i>
   </separator>
   <separator name="electronic convergence" >
    <i type="int" name="NELM">    60</i>
    <i type="int" name="NELMDL">    -5</i>
    <i type="int" name="NELMIN">     2</i>
    <i name="ENINI">    350.00000000</i>
    <separator name="electronic convergence detail" >
     <i type="logical" name="LDIAG"> T  </i>
     <i type="logical" name="LSUBROT"> F  </i>
     <i name="WEIMIN">      0.00100000</i>
     <i name="EBREAK">      0.00000001</i>
     <i name="DEPER">      0.30000000</i>
     <i type="int" name="NRMM">     4</i>
     <i name="TIME">      0.40000000</i>
    </separator>
   </separator>
   <separator name="electronic mixer" >
    <i name="AMIX">      0.40000000</i>
    <i name="BMIX">      1.00000000</i>
    <i name="AMIN">      0.10000000</i>
    <i name="AMIX_MAG">      1.60000000</i>
    <i name="BMIX_MAG">      1.00000000</i>
    <separator name="electronic mixer details" >
     <i type="int" name="IMIX">     4</i>
     <i type="int" name="MAXMIX">   -45</i>
     <i name="WC">    100.00000000</i>
     <i type="int" name="INIMIX">     1</i>
     <i type="int" name="MIXPRE">     1</i>
     <i type="int" name="MREMOVE">     5</i>
    </separator>
   </separator>
   <separator name="electronic dipolcorrection" >
    <i type="logical" name="LDIPOL"> F  </i>
    <i type="logical" name="LMONO"> F  </i>
    <i type="int" name="IDIPOL">     0</i>
    <i name="EPSILON">      1.00000000</i>
    <v name="DIPOL">   -100.00000000   -100.00000000   -100.00000000</v>
    <i name="EFIELD">      0.00000000</i>
   </separator>
  </separator>
  <separator name="grids" >
   <i type="int" name="NGX">    24</i>
   <i type="int" name="NGY">    40</i>
   <i type="int" name="NGZ">    98</i>
   <i type="int" name="NGXF">    48</i>
   <i type="int" name="NGYF">    80</i>
   <i type="int" name="NGZF">   196</i>
   <i type="logical" name="ADDGRID"> F  </i>
  </separator>
  <separator name="ionic" >
   <i type="int" name="NSW">  1000</i>
   <i type="int" name="IBRION">     2</i>
   <i type="int" name="ISIF">     2</i>
   <i name="PSTRESS">      0.00000000</i>
   <i name="EDIFFG">      0.00001000</i>
   <i type="int" name="NFREE">     1</i>
   <i name="POTIM">      0.50000000</i>
   <i name="SMASS">     -3.00000000</i>
   <i name="SCALEE">      1.00000000</i>
  </separator>
  <separator name="ionic md" >
   <i name="TEBEG">      0.00010000</i>
   <i name="TEEND">      0.00010000</i>
   <i type="int" name="NBLOCK">     1</i>
   <i type="int" name="KBLOCK">  1000</i>
   <i type="int" name="NPACO">   256</i>
   <i name="APACO">     16.00000000</i>
  </separator>
  <separator name="symmetry" >
   <i type="int" name="ISYM">     0</i>
   <i name="SYMPREC">      0.00001000</i>
  </separator>
  <separator name="dos" >
   <i type="logical" name="LORBIT"> F  </i>
   <v name="RWIGS">     -1.00000000     -1.00000000</v>
   <i type="int" name="NEDOS">   301</i>
   <i name="EMIN">     10.00000000</i>
   <i name="EMAX">    -10.00000000</i>
   <i name="EFERMI">      0.00000000</i>
  </separator>
  <separator name="writing" >
   <i type="int" name="NWRITE">     3</i>
   <i type="logical" name="LWAVE"> F  </i>
   <i type="logical" name="LCHARG"> F  </i>
   <i type="logical" name="LPARD"> F  </i>
   <i type="logical" name="LVTOT"> F  </i>
   <i type="logical" name="LVHAR"> F  </i>
   <i type="logical" name="LELF"> F  </i>
   <i type="logical" name="LOPTICS"> F  </i>
   <v name="STM">      0.00000000      0.00000000      0.00000000      0.00000000      0.00000000      0.00000000      0.00000000</v>
  </separator>
  <separator name="performance" >
   <i type="int" name="NPAR">     8</i>
   <i type="int" name="NSIM">     4</i>
   <i type="int" name="NBLK">    -1</i>
   <i type="logical" name="LPLANE"> T  </i>
   <i type="logical" name="LSCALAPACK"> T  </i>
   <i type="logical" name="LSCAAWARE"> F  </i>
   <i type="logical" name="LSCALU"> F  </i>
   <i type="logical" name="LASYNC"> F  </i>
   <i type="logical" name="LORBITALREAL"> F  </i>
  </separator>
  <separator name="miscellaneous" >
   <i type="int" name="IDIOT">     3</i>
   <i type="logical" name="LMUSIC"> F  </i>
   <v name="POMASS">    127.60000000     95.94000000</v>
   <v name="DARWINR">      0.00000000      0.00000000</v>
   <v name="DARWINV">      1.00000000      1.00000000</v>
   <i type="logical" name="LCORR"> T  </i>
  </separator>
  <i type="logical" name="GGA_COMPAT"> T  </i>
  <i type="logical" name="LBERRY"> F  </i>
  <i type="int" name="ICORELEVEL">     0</i>
  <i type="logical" name="LDAU"> F  </i>
  <i type="int" name="I_CONSTRAINED_M">     0</i>
  <separator name="electronic exchange-correlation" >
   <i type="string" name="GGA">--</i>
   <i type="int" name="VOSKOWN">     0</i>
   <i type="logical" name="LHFCALC"> F  </i>
   <i type="string" name="PRECFOCK"></i>
   <i type="logical" name="LSYMGRAD"> F  </i>
   <i type="logical" name="LHFONE"> F  </i>
   <i type="logical" name="LRHFCALC"> F  </i>
   <i type="logical" name="LTHOMAS"> F  </i>
   <i type="logical" name="LMODELHF"> F  </i>
   <i name="ENCUT4O">     -1.00000000</i>
   <i type="int" name="EXXOEP">     0</i>
   <i type="int" name="FOURORBIT">     0</i>
   <i name="AEXX">      0.00000000</i>
   <i name="HFALPHA">      0.00000000</i>
   <i name="MCALPHA">      0.00000000</i>
   <i name="ALDAX">      1.00000000</i>
   <i name="AGGAX">      1.00000000</i>
   <i name="ALDAC">      1.00000000</i>
   <i name="AGGAC">      1.00000000</i>
   <i type="int" name="NKREDX">     1</i>
   <i type="int" name="NKREDY">     1</i>
   <i type="int" name="NKREDZ">     1</i>
   <i type="logical" name="SHIFTRED"> F  </i>
   <i type="logical" name="ODDONLY"> F  </i>
   <i type="logical" name="EVENONLY"> F  </i>
   <i type="int" name="LMAXFOCK">     0</i>
   <i type="int" name="NMAXFOCKAE">     0</i>
   <i type="logical" name="LFOCKAEDFT"> F  </i>
   <i name="HFSCREEN">      0.00000000</i>
   <i name="HFSCREENC">      0.00000000</i>
   <i type="int" name="NBANDSGWLOW">     0</i>
  </separator>
  <separator name="vdW DFT" >
   <i type="logical" name="LUSE_VDW"> F  </i>
   <i name="Zab_VDW">     -0.84910000</i>
   <i name="PARAM1">      0.12340000</i>
   <i name="PARAM2">      1.00000000</i>
   <i name="PARAM3">      0.00000000</i>
  </separator>
  <separator name="model GW" >
   <i type="int" name="MODEL_GW">     0</i>
   <i name="MODEL_EPS0">     34.93615840</i>
   <i name="MODEL_ALPHA">      1.00000000</i>
  </separator>
  <separator name="linear response parameters" >
   <i type="logical" name="LEPSILON"> F  </i>
   <i type="logical" name="LRPA"> F  </i>
   <i type="logical" name="LNABLA"> F  </i>
   <i type="logical" name="LVEL"> F  </i>
   <i type="int" name="KINTER">     0</i>
   <i name="CSHIFT">      0.10000000</i>
   <i name="OMEGAMAX">     -1.00000000</i>
   <i name="DEG_THRESHOLD">      0.00200000</i>
  </separator>
  <separator name="orbital magnetization" >
   <i type="logical" name="NUCIND"> F  </i>
   <v name="MAGPOS">      0.00000000      0.00000000      0.00000000</v>
   <i type="logical" name="LNICSALL"> T  </i>
   <i type="logical" name="ORBITALMAG"> F  </i>
   <i type="logical" name="LMAGBLOCH"> F  </i>
   <i type="logical" name="LCHIMAG"> F  </i>
   <i type="logical" name="LGAUGE"> T  </i>
   <i type="int" name="MAGATOM">     0</i>
   <v name="MAGDIPOL">      0.00000000      0.00000000      0.00000000</v>
   <v name="AVECCONST">      0.00000000      0.00000000      0.00000000</v>
  </separator>
  <separator name="response functions" >
   <i type="logical" name="LADDER"> F  </i>
   <i type="logical" name="LFXC"> F  </i>
   <i type="logical" name="LHARTREE"> T  </i>
   <i type="int" name="IBSE">     0</i>
   <i type="logical" name="LTCTE"> F  </i>
   <i type="logical" name="LTETE"> F  </i>
   <i type="logical" name="LTRIPLET"> F  </i>
   <i type="logical" name="LFXCEPS"> F  </i>
   <i type="logical" name="LFXHEG"> F  </i>
   <i type="logical" name="L2ORDER"> F  </i>
   <i type="logical" name="LUSEW"> F  </i>
   <i name="ENCUTGW">     -2.00000000</i>
   <i name="ENCUTGWSOFT">     -2.00000000</i>
   <i name="ENCUTLF">     -1.00000000</i>
   <i type="int" name="LMAXMP2">    -1</i>
   <i name="SCISSOR">      0.00000000</i>
   <i type="int" name="NOMEGA">     0</i>
   <i type="int" name="NOMEGAR">     0</i>
   <i type="int" name="NBANDSGW">    -1</i>
   <i type="int" name="NBANDSO">    -1</i>
   <i type="int" name="NBANDSV">    -1</i>
   <i type="int" name="NELM">     1</i>
   <i type="int" name="DIM">     3</i>
   <i type="int" name="ANTIRES">     0</i>
   <i name="OMEGAMAX">    -30.00000000</i>
   <i name="OMEGAMIN">    -30.00000000</i>
   <i name="OMEGATL">   -200.00000000</i>
   <i type="int" name="OMEGAGRID">     0</i>
   <i name="CSHIFT">     -0.10000000</i>
   <i type="logical" name="SELFENERGY"> F  </i>
   <i type="logical" name="LSPECTRAL"> F  </i>
   <i type="logical" name="ODDONLYGW"> F  </i>
   <i type="logical" name="EVENONLYGW"> F  </i>
   <i type="int" name="NKREDLFX">     1</i>
   <i type="int" name="NKREDLFY">     1</i>
   <i type="int" name="NKREDLFZ">     1</i>
   <i type="int" name="MAXMEM">  1800</i>
   <i type="int" name="TELESCOPE">     0</i>
   <i type="int" name="TAUPAR">     1</i>
  </separator>
  <separator name="External order field" >
   <i name="OFIELD_KAPPA">      0.00000000</i>
   <v name="OFIELD_K">      0.00000000      0.00000000      0.00000000</v>
   <i name="OFIELD_Q6_NEAR">      0.00000000</i>
   <i name="OFIELD_Q6_FAR">      0.00000000</i>
   <i name="OFIELD_A">      0.00000000</i>
  </separator>
 </parameters>
 <atominfo>
  <atoms>       6 </atoms>
  <types>       2 </types>
  <array name="atoms" >
   <dimension dim="1">ion</dimension>
   <field type="string">element</field>
   <field type="int">atomtype</field>
   <set>
    <rc><c>Te</c><c>   1</c></rc>
    <rc><c>Te</c><c>   1</c></rc>
    <rc><c>Te</c><c>   1</c></rc>
    <rc><c>Te</c><c>   1</c></rc>
    <rc><c>Mo</c><c>   2</c></rc>
    <rc><c>Mo</c><c>   2</c></rc>
   </set>
  </array>
  <array name="atomtypes" >
   <dimension dim="1">type</dimension>
   <field type="int">atomspertype</field>
   <field type="string">element</field>
   <field>mass</field>
   <field>valence</field>
   <field type="string">pseudopotential</field>
   <set>
    <rc><c>   4</c><c>Te</c><c>    127.60000000</c><c>      6.00000000</c><c>  PAW_PBE Te 08Apr2002                  </c></rc>
    <rc><c>   2</c><c>Mo</c><c>     95.94000000</c><c>      6.00000000</c><c>  PAW_PBE Mo 08Apr2002                  </c></rc>
   </set>
  </array>
 </atominfo>
 <structure name="initialpos" >
  <crystal>
   <varray name="basis" >
    <v>       3.55100000       0.00000000       0.00000000 </v>
    <v>       0.00000000       6.14900000       0.00000000 </v>
    <v>       0.00000000       0.00000000      16.00000000 </v>
   </varray>
   <i name="volume">    349.36158400 </i>
   <varray name="rec_basis" >
    <v>       0.28161081       0.00000000       0.00000000 </v>
    <v>       0.00000000       0.16262807       0.00000000 </v>
    <v>       0.00000000       0.00000000       0.06250000 </v>
   </varray>
  </crystal>
  <varray name="positions" >
   <v>       0.00000000       0.66665962       0.11282875 </v>
   <v>       0.00000000       0.66665962       0.88717125 </v>
   <v>       0.50000000       0.16665799       0.11282750 </v>
   <v>       0.50000000       0.16665799       0.88717250 </v>
   <v>       0.50000000       0.50001464       0.00000000 </v>
   <v>       0.00000000       0.00000813       0.00000000 </v>
  </varray>
 </structure>
 <calculation>
  <scstep>
   <time name="dav">    3.12    3.12</time>
   <time name="total">    3.16    3.18</time>
   <energy>
    <i name="alphaZ">     25.36157480 </i>
    <i name="ewald">   1695.32331395 </i>
    <i name="hartreedc">  -2977.11215032 </i>
    <i name="XCdc">   -233.75808350 </i>
    <i name="pawpsdc">   1362.14282323 </i>
    <i name="pawaedc">  -1065.87210056 </i>
    <i name="eentropy">     -0.06625386 </i>
    <i name="bandstr">     53.10468978 </i>
    <i name="atom">   1328.10454569 </i>
    <i name="e_fr_energy">    187.22835921 </i>
    <i name="e_wo_entrp">    187.29461307 </i>
    <i name="e_0_energy">    187.26148614 </i>
   </energy>
  </scstep>
  <scstep>
   <time name="dav">    3.85    3.85</time>
   <time name="total">    3.90    3.90</time>
   <energy>
    <i name="e_fr_energy">    -17.93720136 </i>
    <i name="e_wo_entrp">    -17.93187197 </i>
    <i name="e_0_energy">    -17.93453666 </i>
   </energy>
  </scstep>
  <scstep>
   <time name="dav">    3.57    3.56</time>
   <time name="total">    3.62    3.62</time>
   <energy>
    <i name="e_fr_energy">    -36.80487914 </i>
    <i name="e_wo_entrp">    -36.79860879 </i>
    <i name="e_0_energy">    -36.80174396 </i>
   </energy>
  </scstep>
  <scstep>
   <time name="dav">    4.23    4.23</time>
   <time name="total">    4.28    4.28</time>
   <energy>
    <i name="e_fr_energy">    -37.49109595 </i>
    <i name="e_wo_entrp">    -37.48485791 </i>
    <i name="e_0_energy">    -37.48797693 </i>
   </energy>
  </scstep>
  <scstep>
   <time name="dav">    3.70    3.70</time>
   <time name="total">    3.87    3.87</time>
   <energy>
    <i name="e_fr_energy">    -37.50120882 </i>
    <i name="e_wo_entrp">    -37.49497092 </i>
    <i name="e_0_energy">    -37.49808987 </i>
   </energy>
  </scstep>
  <scstep>
   <time name="dav">    3.51    3.51</time>
   <time name="total">    3.70    3.70</time>
   <energy>
    <i name="e_fr_energy">    -36.67107053 </i>
    <i name="e_wo_entrp">    -36.66279339 </i>
    <i name="e_0_energy">    -36.66693196 </i>
   </energy>
  </scstep>
  <scstep>
   <time name="dav">    3.55    3.55</time>
   <time name="total">    3.75    3.75</time>
   <energy>
    <i name="e_fr_energy">    -36.63361873 </i>
    <i name="e_wo_entrp">    -36.62738850 </i>
    <i name="e_0_energy">    -36.63050362 </i>
   </energy>
  </scstep>
  <scstep>
   <time name="dav">    3.63    3.65</time>
   <time name="total">    3.82    3.86</time>
   <energy>
    <i name="e_fr_energy">    -36.09640565 </i>
    <i name="e_wo_entrp">    -36.08937790 </i>
    <i name="e_0_energy">    -36.09289178 </i>
   </energy>
  </scstep>
  <scstep>
   <time name="dav">    3.65    3.65</time>
   <time name="total">    3.85    3.85</time>
   <energy>
    <i name="e_fr_energy">    -36.07040445 </i>
    <i name="e_wo_entrp">    -36.06292047 </i>
    <i name="e_0_energy">    -36.06666246 </i>
   </energy>
  </scstep>
  <scstep>
   <time name="dav">    3.69    3.69</time>
   <time name="total">    3.89    3.89</time>
   <energy>
    <i name="e_fr_energy">    -36.06577971 </i>
    <i name="e_wo_entrp">    -36.05843073 </i>
    <i name="e_0_energy">    -36.06210522 </i>
   </energy>
  </scstep>
  <scstep>
   <time name="dav">    3.72    3.72</time>
   <time name="total">    3.92    3.92</time>
   <energy>
    <i name="e_fr_energy">    -36.06504411 </i>
    <i name="e_wo_entrp">    -36.05762253 </i>
    <i name="e_0_energy">    -36.06133332 </i>
   </energy>
  </scstep>
  <scstep>
   <time name="dav">    3.88    3.88</time>
   <time name="total">    4.07    4.07</time>
   <energy>
    <i name="e_fr_energy">    -36.06453909 </i>
    <i name="e_wo_entrp">    -36.05715843 </i>
    <i name="e_0_energy">    -36.06084876 </i>
   </energy>
  </scstep>
  <scstep>
   <time name="dav">    3.77    3.77</time>
   <time name="total">    3.97    3.97</time>
   <energy>
    <i name="e_fr_energy">    -36.06438666 </i>
    <i name="e_wo_entrp">    -36.05700802 </i>
    <i name="e_0_energy">    -36.06069734 </i>
   </energy>
  </scstep>
  <scstep>
   <time name="dav">    3.52    3.52</time>
   <time name="total">    3.72    3.72</time>
   <energy>
    <i name="e_fr_energy">    -36.06406483 </i>
    <i name="e_wo_entrp">    -36.05668977 </i>
    <i name="e_0_energy">    -36.06037730 </i>
   </energy>
  </scstep>
  <scstep>
   <time name="dav">    3.90    3.92</time>
   <time name="total">    4.10    4.12</time>
   <energy>
    <i name="e_fr_energy">    -36.06410844 </i>
    <i name="e_wo_entrp">    -36.05674040 </i>
    <i name="e_0_energy">    -36.06042442 </i>
   </energy>
  </scstep>
  <scstep>
   <time name="dav">    3.29    3.29</time>
   <time name="total">    3.49    3.50</time>
   <energy>
    <i name="e_fr_energy">    -36.06424525 </i>
    <i name="e_wo_entrp">    -36.05687827 </i>
    <i name="e_0_energy">    -36.06056176 </i>
   </energy>
  </scstep>
  <scstep>
   <time name="dav">    3.29    3.29</time>
   <time name="total">    3.49    3.49</time>
   <energy>
    <i name="e_fr_energy">    -36.06440007 </i>
    <i name="e_wo_entrp">    -36.05703235 </i>
    <i name="e_0_energy">    -36.06071621 </i>
   </energy>
  </scstep>
  <scstep>
   <time name="dav">    3.62    3.62</time>
   <time name="total">    3.82    3.82</time>
   <energy>
    <i name="e_fr_energy">    -36.06450381 </i>
    <i name="e_wo_entrp">    -36.05713400 </i>
    <i name="e_0_energy">    -36.06081891 </i>
   </energy>
  </scstep>
  <scstep>
   <time name="dav">    2.89    2.89</time>
   <time name="total">    3.09    3.09</time>
   <energy>
    <i name="e_fr_energy">    -36.06457835 </i>
    <i name="e_wo_entrp">    -36.05720790 </i>
    <i name="e_0_energy">    -36.06089313 </i>
   </energy>
  </scstep>
  <scstep>
   <time name="dav">    2.95    2.95</time>
   <time name="total">    3.15    3.15</time>
   <energy>
    <i name="e_fr_energy">    -36.06459200 </i>
    <i name="e_wo_entrp">    -36.05722158 </i>
    <i name="e_0_energy">    -36.06090679 </i>
   </energy>
  </scstep>
  <scstep>
   <time name="dav">    2.58    2.58</time>
   <time name="total">    2.77    2.78</time>
   <energy>
    <i name="e_fr_energy">    -36.06459503 </i>
    <i name="e_wo_entrp">    -36.05722476 </i>
    <i name="e_0_energy">    -36.06090990 </i>
   </energy>
  </scstep>
  <scstep>
   <time name="dav">    2.46    2.46</time>
   <time name="total">    2.55    2.55</time>
   <energy>
    <i name="alphaZ">     25.36157480 </i>
    <i name="ewald">   1695.32331395 </i>
    <i name="hartreedc">  -2994.15148129 </i>
    <i name="XCdc">   -232.33559980 </i>
    <i name="pawpsdc">   2731.84894302 </i>
    <i name="pawaedc">  -2438.08079781 </i>
    <i name="eentropy">     -0.00737005 </i>
    <i name="bandstr">   -152.12772426 </i>
    <i name="atom">   1328.10454569 </i>
    <i name="e_fr_energy">    -36.06459576 </i>
    <i name="e_wo_entrp">    -36.05722570 </i>
    <i name="e_0_energy">    -36.06091073 </i>
   </energy>
  </scstep>
  <structure>
   <crystal>
    <varray name="basis" >
     <v>       3.55100000       0.00000000       0.00000000 </v>
     <v>       0.00000000       6.14900000       0.00000000 </v>
     <v>       0.00000000       0.00000000      16.00000000 </v>
    </varray>
    <i name="volume">    349.36158400 </i>
    <varray name="rec_basis" >
     <v>       0.28161081       0.00000000       0.00000000 </v>
     <v>       0.00000000       0.16262807       0.00000000 </v>
     <v>       0.00000000       0.00000000       0.06250000 </v>
    </varray>
   </crystal>
   <varray name="positions" >
    <v>       0.00000000       0.66665962       0.11282875 </v>
    <v>       0.00000000       0.66665962       0.88717125 </v>
    <v>       0.50000000       0.16665799       0.11282750 </v>
    <v>       0.50000000       0.16665799       0.88717250 </v>
    <v>       0.50000000       0.50001464       0.00000000 </v>
    <v>       0.00000000       0.00000813       0.00000000 </v>
   </varray>
  </structure>
  <varray name="forces" >
   <v>       0.00000001      -0.00004475       0.00939944 </v>
   <v>       0.00000004      -0.00004486      -0.00939962 </v>
   <v>      -0.00000004       0.00008436       0.00938777 </v>
   <v>      -0.00000012       0.00008430      -0.00938800 </v>
   <v>       0.00000010      -0.00022095       0.00000027 </v>
   <v>       0.00000000       0.00014189       0.00000014 </v>
  </varray>
  <varray name="stress" >
   <v>      -1.17823811      -0.00000034      -0.00000039 </v>
   <v>      -0.00000017      -1.08539307      -0.00000043 </v>
   <v>      -0.00000037      -0.00000036      -0.67949519 </v>
  </varray>
  <energy>
   <i name="e_fr_energy">    -36.06459576 </i>
   <i name="e_wo_entrp">    -36.06091073 </i>
   <i name="e_0_energy">     -0.00737005 </i>
  </energy>
  <time name="totalsc">   81.61   81.71</time>
 </calculation>
 <calculation>
  <scstep>
   <time name="dav">    3.07    3.07</time>
   <time name="total">    3.21    3.22</time>
   <energy>
    <i name="alphaZ">     25.36157480 </i>
    <i name="ewald">   1694.64206463 </i>
    <i name="hartreedc">  -2993.49607514 </i>
    <i name="XCdc">   -232.33932039 </i>
    <i name="pawpsdc">   2731.85185166 </i>
    <i name="pawaedc">  -2438.08371222 </i>
    <i name="eentropy">     -0.00737081 </i>
    <i name="bandstr">   -152.09816395 </i>
    <i name="atom">   1328.10454569 </i>
    <i name="e_fr_energy">    -36.06460572 </i>
    <i name="e_wo_entrp">    -36.05723491 </i>
    <i name="e_0_energy">    -36.06092031 </i>
   </energy>
  </scstep>
  <scstep>
   <time name="dav">    3.38    3.38</time>
   <time name="total">    3.58    3.58</time>
   <energy>
    <i name="e_fr_energy">    -36.06460629 </i>
    <i name="e_wo_entrp">    -36.05723401 </i>
    <i name="e_0_energy">    -36.06092015 </i>
   </energy>
  </scstep>
  <scstep>
   <time name="dav">    2.39    2.42</time>
   <time name="total">    2.48    2.51</time>
   <energy>
    <i name="alphaZ">     25.36157480 </i>
    <i name="ewald">   1694.64206463 </i>
    <i name="hartreedc">  -2993.49602494 </i>
    <i name="XCdc">   -232.33899715 </i>
    <i name="pawpsdc">   2731.14138164 </i>
    <i name="pawaedc">  -2437.37208414 </i>
    <i name="eentropy">     -0.00737165 </i>
    <i name="bandstr">   -152.09969475 </i>
    <i name="atom">   1328.10454569 </i>
    <i name="e_fr_energy">    -36.06460587 </i>
    <i name="e_wo_entrp">    -36.05723422 </i>
    <i name="e_0_energy">    -36.06092004 </i>
   </energy>
  </scstep>
  <structure>
   <crystal>
    <varray name="basis" >
     <v>       3.55100000       0.00000000       0.00000000 </v>
     <v>       0.00000000       6.14900000       0.00000000 </v>
     <v>       0.00000000       0.00000000      16.00000000 </v>
    </varray>
    <i name="volume">    349.36158400 </i>
    <varray name="rec_basis" >
     <v>       0.28161081       0.00000000       0.00000000 </v>
     <v>       0.00000000       0.16262807       0.00000000 </v>
     <v>       0.00000000       0.00000000       0.06250000 </v>
    </varray>
   </crystal>
   <varray name="positions" >
    <v>       0.00000000       0.66665927       0.11285709 </v>
    <v>       0.00000000       0.66665927       0.88714291 </v>
    <v>       0.50000000       0.16665866       0.11285581 </v>
    <v>       0.50000000       0.16665865       0.88714419 </v>
    <v>       0.50000000       0.50001290       0.00000000 </v>
    <v>       0.00000000       0.00000924       0.00000000 </v>
   </varray>
  </structure>
  <varray name="forces" >
   <v>      -0.00000001      -0.00003628       0.00311122 </v>
   <v>      -0.00000000      -0.00003645      -0.00311089 </v>
   <v>       0.00000004       0.00003423       0.00321824 </v>
   <v>       0.00000006       0.00003444      -0.00321798 </v>
   <v>      -0.00000007      -0.00004792      -0.00000025 </v>
   <v>      -0.00000001       0.00005198      -0.00000034 </v>
  </varray>
  <varray name="stress" >
   <v>      -1.26467154       0.00000123      -0.00000020 </v>
   <v>       0.00000123      -1.17152682      -0.00000025 </v>
   <v>      -0.00000030      -0.00000045      -0.88679978 </v>
  </varray>
  <energy>
   <i name="e_fr_energy">    -36.06460587 </i>
   <i name="e_wo_entrp">    -36.06092004 </i>
   <i name="e_0_energy">     -0.00737165 </i>
  </energy>
  <time name="totalsc">   10.90   10.94</time>
 </calculation>
 <calculation>
  <scstep>
   <time name="dav">    3.09    3.09</time>
   <time name="total">    3.24    3.24</time>
   <energy>
    <i name="alphaZ">     25.36157480 </i>
    <i name="ewald">   1694.29601068 </i>
    <i name="hartreedc">  -2993.16270676 </i>
    <i name="XCdc">   -232.34070453 </i>
    <i name="pawpsdc">   2730.94446434 </i>
    <i name="pawaedc">  -2437.17450550 </i>
    <i name="eentropy">     -0.00737245 </i>
    <i name="bandstr">   -152.08591246 </i>
    <i name="atom">   1328.10454569 </i>
    <i name="e_fr_energy">    -36.06460619 </i>
    <i name="e_wo_entrp">    -36.05723373 </i>
    <i name="e_0_energy">    -36.06091996 </i>
   </energy>
  </scstep>
  <scstep>
   <time name="dav">    3.24    3.24</time>
   <time name="total">    3.33    3.33</time>
   <energy>
    <i name="alphaZ">     25.36157480 </i>
    <i name="ewald">   1694.29601068 </i>
    <i name="hartreedc">  -2993.16460454 </i>
    <i name="XCdc">   -232.34061003 </i>
    <i name="pawpsdc">   2730.61448894 </i>
    <i name="pawaedc">  -2436.84408959 </i>
    <i name="eentropy">     -0.00737254 </i>
    <i name="bandstr">   -152.08454961 </i>
    <i name="atom">   1328.10454569 </i>
    <i name="e_fr_energy">    -36.06460620 </i>
    <i name="e_wo_entrp">    -36.05723366 </i>
    <i name="e_0_energy">    -36.06091993 </i>
   </energy>
  </scstep>
  <structure>
   <crystal>
    <varray name="basis" >
     <v>       3.55100000       0.00000000       0.00000000 </v>
     <v>       0.00000000       6.14900000       0.00000000 </v>
     <v>       0.00000000       0.00000000      16.00000000 </v>
    </varray>
    <i name="volume">    349.36158400 </i>
    <varray name="rec_basis" >
     <v>       0.28161081       0.00000000       0.00000000 </v>
     <v>       0.00000000       0.16262807       0.00000000 </v>
     <v>       0.00000000       0.00000000       0.06250000 </v>
    </varray>
   </crystal>
   <varray name="positions" >
    <v>       0.00000000       0.66665909       0.11287149 </v>
    <v>       0.00000000       0.66665909       0.88712851 </v>
    <v>       0.50000000       0.16665899       0.11287019 </v>
    <v>       0.50000000       0.16665899       0.88712981 </v>
    <v>       0.50000000       0.50001202       0.00000000 </v>
    <v>       0.00000000       0.00000981       0.00000000 </v>
   </varray>
  </structure>
  <varray name="forces" >
   <v>       0.00000005      -0.00012052       0.00009135 </v>
   <v>       0.00000003      -0.00012068      -0.00009065 </v>
   <v>       0.00000005       0.00010582       0.00035375 </v>
   <v>       0.00000009       0.00010599      -0.00035327 </v>
   <v>      -0.00000019       0.00002602      -0.00000077 </v>
   <v>      -0.00000003       0.00000337      -0.00000040 </v>
  </varray>
  <varray name="stress" >
   <v>      -1.29924757       0.00000064       0.00000056 </v>
   <v>       0.00000074      -1.20582817      -0.00000094 </v>
   <v>       0.00000065      -0.00000101      -0.99001977 </v>
  </varray>
  <energy>
   <i name="e_fr_energy">    -36.06460620 </i>
   <i name="e_wo_entrp">    -36.06091993 </i>
   <i name="e_0_energy">     -0.00737254 </i>
  </energy>
  <time name="totalsc">    8.02    8.03</time>
  <eigenvalues>
   <array>
    <dimension dim="1">band</dimension>
    <dimension dim="2">kpoint</dimension>
    <dimension dim="3">spin</dimension>
    <field>eigene</field>
    <field>occ</field>
    <set>
     <set comment="spin 1">
      <set comment="kpoint 1">
       <r>  -12.4655    1.0000 </r>
       <r>  -11.5676    1.0000 </r>
       <r>  -10.5655    1.0000 </r>
       <r>  -10.2340    1.0000 </r>
       <r>   -5.2602    1.0000 </r>
       <r>   -4.8245    1.0000 </r>
       <r>   -4.4263    1.0000 </r>
       <r>   -3.2196    1.0000 </r>
       <r>   -2.2220    1.0000 </r>
       <r>   -1.6431    1.0000 </r>
       <r>   -1.6080    1.0000 </r>
       <r>   -1.5743    1.0000 </r>
       <r>   -1.5287    1.0000 </r>
       <r>   -0.8266    1.0000 </r>
       <r>   -0.7967    1.0000 </r>
       <r>   -0.7290    1.0000 </r>
       <r>   -0.3896    0.9996 </r>
       <r>   -0.2217    0.9968 </r>
       <r>    1.4533    0.0000 </r>
       <r>    1.7804    0.0000 </r>
       <r>    3.1033    0.0000 </r>
       <r>    3.1665    0.0000 </r>
       <r>    3.3375    0.0000 </r>
       <r>    3.3644    0.0000 </r>
      </set>
      <set comment="kpoint 2">
       <r>  -12.4040    1.0000 </r>
       <r>  -11.5227    1.0000 </r>
       <r>  -10.5347    1.0000 </r>
       <r>  -10.2093    1.0000 </r>
       <r>   -5.1858    1.0000 </r>
       <r>   -4.7561    1.0000 </r>
       <r>   -4.4087    1.0000 </r>
       <r>   -3.1965    1.0000 </r>
       <r>   -2.3307    1.0000 </r>
       <r>   -1.7723    1.0000 </r>
       <r>   -1.7474    1.0000 </r>
       <r>   -1.5225    1.0000 </r>
       <r>   -1.5123    1.0000 </r>
       <r>   -1.1217    1.0000 </r>
       <r>   -0.9158    1.0000 </r>
       <r>   -0.7227    1.0000 </r>
       <r>   -0.3954    0.9997 </r>
       <r>   -0.1778    0.9943 </r>
       <r>    1.4795    0.0000 </r>
       <r>    1.8179    0.0000 </r>
       <r>    2.8329    0.0000 </r>
       <r>    2.9715    0.0000 </r>
       <r>    3.1846    0.0000 </r>
       <r>    3.2189    0.0000 </r>
      </set>
      <set comment="kpoint 3">
       <r>  -12.2829    1.0000 </r>
       <r>  -11.4345    1.0000 </r>
       <r>  -10.4779    1.0000 </r>
       <r>  -10.1641    1.0000 </r>
       <r>   -5.0396    1.0000 </r>
       <r>   -4.6242    1.0000 </r>
       <r>   -4.3818    1.0000 </r>
       <r>   -3.1611    1.0000 </r>
       <r>   -2.4990    1.0000 </r>
       <r>   -2.0064    1.0000 </r>
       <r>   -1.9704    1.0000 </r>
       <r>   -1.7011    1.0000 </r>
       <r>   -1.5078    1.0000 </r>
       <r>   -1.4261    1.0000 </r>
       <r>   -1.1097    1.0000 </r>
       <r>   -0.6363    1.0000 </r>
       <r>   -0.4190    0.9997 </r>
       <r>   -0.1462    0.9915 </r>
       <r>    1.4621    0.0000 </r>
       <r>    1.9400    0.0000 </r>
       <r>    2.4675    0.0000 </r>
       <r>    2.4900    0.0000 </r>
       <r>    2.6989    0.0000 </r>
       <r>    2.9801    0.0000 </r>
      </set>
      <set comment="kpoint 4">
       <r>  -12.1061    1.0000 </r>
       <r>  -11.3059    1.0000 </r>
       <r>  -10.4053    1.0000 </r>
       <r>  -10.1069    1.0000 </r>
       <r>   -4.8280    1.0000 </r>
       <r>   -4.4397    1.0000 </r>
       <r>   -4.3607    1.0000 </r>
       <r>   -3.1454    1.0000 </r>
       <r>   -2.6694    1.0000 </r>
       <r>   -2.3525    1.0000 </r>
       <r>   -2.3119    1.0000 </r>
       <r>   -2.1951    1.0000 </r>
       <r>   -1.5324    1.0000 </r>
       <r>   -1.4189    1.0000 </r>
       <r>   -1.3048    1.0000 </r>
       <r>   -0.5863    1.0000 </r>
       <r>   -0.4765    0.9999 </r>
       <r>   -0.0997    0.9846 </r>
       <r>    1.3771    0.0000 </r>
       <r>    2.0483    0.0000 </r>
       <r>    2.1417    0.0000 </r>
       <r>    2.1729    0.0000 </r>
       <r>    2.3081    0.0000 </r>
       <r>    2.6242    0.0000 </r>
      </set>
      <set comment="kpoint 5">
       <r>  -11.8799    1.0000 </r>
       <r>  -11.1423    1.0000 </r>
       <r>  -10.3329    1.0000 </r>
       <r>  -10.0511    1.0000 </r>
       <r>   -4.5658    1.0000 </r>
       <r>   -4.3604    1.0000 </r>
       <r>   -4.2248    1.0000 </r>
       <r>   -3.2781    1.0000 </r>
       <r>   -2.7934    1.0000 </r>
       <r>   -2.7411    1.0000 </r>
       <r>   -2.7383    1.0000 </r>
       <r>   -2.4350    1.0000 </r>
       <r>   -1.8159    1.0000 </r>
       <r>   -1.5798    1.0000 </r>
       <r>   -1.2162    1.0000 </r>
       <r>   -0.5981    1.0000 </r>
       <r>   -0.5522    1.0000 </r>
       <r>   -0.0262    0.9612 </r>
       <r>    1.2586    0.0000 </r>
       <r>    1.7105    0.0000 </r>
       <r>    2.0240    0.0000 </r>
       <r>    2.0620    0.0000 </r>
       <r>    2.2572    0.0000 </r>
       <r>    2.3633    0.0000 </r>
      </set>
      <set comment="kpoint 6">
       <r>  -11.6138    1.0000 </r>
       <r>  -10.9510    1.0000 </r>
       <r>  -10.2835    1.0000 </r>
       <r>  -10.0139    1.0000 </r>
       <r>   -4.3772    1.0000 </r>
       <r>   -4.3116    1.0000 </r>
       <r>   -4.0318    1.0000 </r>
       <r>   -3.6033    1.0000 </r>
       <r>   -3.1004    1.0000 </r>
       <r>   -2.8482    1.0000 </r>
       <r>   -2.8312    1.0000 </r>
       <r>   -2.7197    1.0000 </r>
       <r>   -2.2086    1.0000 </r>
       <r>   -1.6226    1.0000 </r>
       <r>   -1.2854    1.0000 </r>
       <r>   -0.6792    1.0000 </r>
       <r>   -0.5519    1.0000 </r>
       <r>    0.0447    0.9086 </r>
       <r>    1.1622    0.0000 </r>
       <r>    1.4708    0.0000 </r>
       <r>    1.9549    0.0000 </r>
       <r>    1.9746    0.0000 </r>
       <r>    2.0106    0.0000 </r>
       <r>    2.5260    0.0000 </r>
      </set>
      <set comment="kpoint 7">
       <r>  -11.3220    1.0000 </r>
       <r>  -10.7430    1.0000 </r>
       <r>  -10.2837    1.0000 </r>
       <r>  -10.0141    1.0000 </r>
       <r>   -4.3770    1.0000 </r>
       <r>   -4.3113    1.0000 </r>
       <r>   -4.0063    1.0000 </r>
       <r>   -3.6035    1.0000 </r>
       <r>   -3.2709    1.0000 </r>
       <r>   -3.0979    1.0000 </r>
       <r>   -2.8480    1.0000 </r>
       <r>   -2.8312    1.0000 </r>
       <r>   -2.4813    1.0000 </r>
       <r>   -1.6228    1.0000 </r>
       <r>   -1.5453    1.0000 </r>
       <r>   -0.8225    1.0000 </r>
       <r>   -0.4624    0.9999 </r>
       <r>    0.0448    0.9085 </r>
       <r>    1.1620    0.0000 </r>
       <r>    1.3314    0.0000 </r>
       <r>    1.8220    0.0000 </r>
       <r>    1.9550    0.0000 </r>
       <r>    2.0749    0.0000 </r>
       <r>    2.5256    0.0000 </r>
      </set>
      <set comment="kpoint 8">
       <r>  -11.0238    1.0000 </r>
       <r>  -10.5325    1.0000 </r>
       <r>  -10.3573    1.0000 </r>
       <r>  -10.0667    1.0000 </r>
       <r>   -4.4721    1.0000 </r>
       <r>   -4.3122    1.0000 </r>
       <r>   -4.2056    1.0000 </r>
       <r>   -3.5120    1.0000 </r>
       <r>   -3.2746    1.0000 </r>
       <r>   -3.1868    1.0000 </r>
       <r>   -2.8229    1.0000 </r>
       <r>   -2.8229    1.0000 </r>
       <r>   -2.6389    1.0000 </r>
       <r>   -1.9098    1.0000 </r>
       <r>   -1.5515    1.0000 </r>
       <r>   -1.0100    1.0000 </r>
       <r>   -0.3751    0.9996 </r>
       <r>   -0.0520    0.9719 </r>
       <r>    1.2772    0.0000 </r>
       <r>    1.3545    0.0000 </r>
       <r>    1.7460    0.0000 </r>
       <r>    2.0196    0.0000 </r>
       <r>    2.1431    0.0000 </r>
       <r>    2.3123    0.0000 </r>
      </set>
      <set comment="kpoint 9">
       <r>  -10.7449    1.0000 </r>
       <r>  -10.5144    1.0000 </r>
       <r>  -10.3374    1.0000 </r>
       <r>  -10.1768    1.0000 </r>
       <r>   -4.5175    1.0000 </r>
       <r>   -4.4152    1.0000 </r>
       <r>   -4.1485    1.0000 </r>
       <r>   -3.8766    1.0000 </r>
       <r>   -3.0553    1.0000 </r>
       <r>   -3.0133    1.0000 </r>
       <r>   -2.7869    1.0000 </r>
       <r>   -2.7317    1.0000 </r>
       <r>   -2.7044    1.0000 </r>
       <r>   -2.3212    1.0000 </r>
       <r>   -1.4076    1.0000 </r>
       <r>   -1.2158    1.0000 </r>
       <r>   -0.2956    0.9987 </r>
       <r>   -0.1858    0.9949 </r>
       <r>    1.4303    0.0000 </r>
       <r>    1.4877    0.0000 </r>
       <r>    1.7353    0.0000 </r>
       <r>    1.9840    0.0000 </r>
       <r>    2.1022    0.0000 </r>
       <r>    2.1553    0.0000 </r>
      </set>
      <set comment="kpoint 10">
       <r>  -10.7449    1.0000 </r>
       <r>  -10.5144    1.0000 </r>
       <r>  -10.3374    1.0000 </r>
       <r>  -10.1768    1.0000 </r>
       <r>   -4.5175    1.0000 </r>
       <r>   -4.4152    1.0000 </r>
       <r>   -4.1485    1.0000 </r>
       <r>   -3.8766    1.0000 </r>
       <r>   -3.0553    1.0000 </r>
       <r>   -3.0133    1.0000 </r>
       <r>   -2.7869    1.0000 </r>
       <r>   -2.7317    1.0000 </r>
       <r>   -2.7044    1.0000 </r>
       <r>   -2.3212    1.0000 </r>
       <r>   -1.4076    1.0000 </r>
       <r>   -1.2158    1.0000 </r>
       <r>   -0.2956    0.9987 </r>
       <r>   -0.1858    0.9949 </r>
       <r>    1.4303    0.0000 </r>
       <r>    1.4877    0.0000 </r>
       <r>    1.7353    0.0000 </r>
       <r>    1.9840    0.0000 </r>
       <r>    2.1022    0.0000 </r>
       <r>    2.1553    0.0000 </r>
      </set>
      <set comment="kpoint 11">
       <r>  -11.0238    1.0000 </r>
       <r>  -10.5325    1.0000 </r>
       <r>  -10.3573    1.0000 </r>
       <r>  -10.0667    1.0000 </r>
       <r>   -4.4721    1.0000 </r>
       <r>   -4.3122    1.0000 </r>
       <r>   -4.2056    1.0000 </r>
       <r>   -3.5120    1.0000 </r>
       <r>   -3.2746    1.0000 </r>
       <r>   -3.1868    1.0000 </r>
       <r>   -2.8229    1.0000 </r>
       <r>   -2.8229    1.0000 </r>
       <r>   -2.6389    1.0000 </r>
       <r>   -1.9098    1.0000 </r>
       <r>   -1.5515    1.0000 </r>
       <r>   -1.0100    1.0000 </r>
       <r>   -0.3751    0.9996 </r>
       <r>   -0.0520    0.9719 </r>
       <r>    1.2772    0.0000 </r>
       <r>    1.3545    0.0000 </r>
       <r>    1.7460    0.0000 </r>
       <r>    2.0196    0.0000 </r>
       <r>    2.1431    0.0000 </r>
       <r>    2.3123    0.0000 </r>
      </set>
      <set comment="kpoint 12">
       <r>  -11.3220    1.0000 </r>
       <r>  -10.7430    1.0000 </r>
       <r>  -10.2837    1.0000 </r>
       <r>  -10.0141    1.0000 </r>
       <r>   -4.3770    1.0000 </r>
       <r>   -4.3113    1.0000 </r>
       <r>   -4.0063    1.0000 </r>
       <r>   -3.6035    1.0000 </r>
       <r>   -3.2709    1.0000 </r>
       <r>   -3.0979    1.0000 </r>
       <r>   -2.8480    1.0000 </r>
       <r>   -2.8312    1.0000 </r>
       <r>   -2.4813    1.0000 </r>
       <r>   -1.6228    1.0000 </r>
       <r>   -1.5453    1.0000 </r>
       <r>   -0.8225    1.0000 </r>
       <r>   -0.4624    0.9999 </r>
       <r>    0.0448    0.9085 </r>
       <r>    1.1620    0.0000 </r>
       <r>    1.3314    0.0000 </r>
       <r>    1.8220    0.0000 </r>
       <r>    1.9550    0.0000 </r>
       <r>    2.0749    0.0000 </r>
       <r>    2.5256    0.0000 </r>
      </set>
      <set comment="kpoint 13">
       <r>  -11.6138    1.0000 </r>
       <r>  -10.9510    1.0000 </r>
       <r>  -10.2835    1.0000 </r>
       <r>  -10.0139    1.0000 </r>
       <r>   -4.3772    1.0000 </r>
       <r>   -4.3116    1.0000 </r>
       <r>   -4.0318    1.0000 </r>
       <r>   -3.6033    1.0000 </r>
       <r>   -3.1004    1.0000 </r>
       <r>   -2.8482    1.0000 </r>
       <r>   -2.8312    1.0000 </r>
       <r>   -2.7197    1.0000 </r>
       <r>   -2.2086    1.0000 </r>
       <r>   -1.6226    1.0000 </r>
       <r>   -1.2854    1.0000 </r>
       <r>   -0.6792    1.0000 </r>
       <r>   -0.5519    1.0000 </r>
       <r>    0.0447    0.9086 </r>
       <r>    1.1622    0.0000 </r>
       <r>    1.4708    0.0000 </r>
       <r>    1.9549    0.0000 </r>
       <r>    1.9746    0.0000 </r>
       <r>    2.0106    0.0000 </r>
       <r>    2.5260    0.0000 </r>
      </set>
      <set comment="kpoint 14">
       <r>  -11.8799    1.0000 </r>
       <r>  -11.1423    1.0000 </r>
       <r>  -10.3329    1.0000 </r>
       <r>  -10.0511    1.0000 </r>
       <r>   -4.5658    1.0000 </r>
       <r>   -4.3604    1.0000 </r>
       <r>   -4.2248    1.0000 </r>
       <r>   -3.2781    1.0000 </r>
       <r>   -2.7934    1.0000 </r>
       <r>   -2.7411    1.0000 </r>
       <r>   -2.7383    1.0000 </r>
       <r>   -2.4350    1.0000 </r>
       <r>   -1.8159    1.0000 </r>
       <r>   -1.5798    1.0000 </r>
       <r>   -1.2162    1.0000 </r>
       <r>   -0.5981    1.0000 </r>
       <r>   -0.5522    1.0000 </r>
       <r>   -0.0262    0.9612 </r>
       <r>    1.2586    0.0000 </r>
       <r>    1.7105    0.0000 </r>
       <r>    2.0240    0.0000 </r>
       <r>    2.0620    0.0000 </r>
       <r>    2.2572    0.0000 </r>
       <r>    2.3633    0.0000 </r>
      </set>
      <set comment="kpoint 15">
       <r>  -12.1061    1.0000 </r>
       <r>  -11.3059    1.0000 </r>
       <r>  -10.4053    1.0000 </r>
       <r>  -10.1069    1.0000 </r>
       <r>   -4.8280    1.0000 </r>
       <r>   -4.4397    1.0000 </r>
       <r>   -4.3607    1.0000 </r>
       <r>   -3.1454    1.0000 </r>
       <r>   -2.6694    1.0000 </r>
       <r>   -2.3525    1.0000 </r>
       <r>   -2.3119    1.0000 </r>
       <r>   -2.1951    1.0000 </r>
       <r>   -1.5324    1.0000 </r>
       <r>   -1.4189    1.0000 </r>
       <r>   -1.3048    1.0000 </r>
       <r>   -0.5863    1.0000 </r>
       <r>   -0.4765    0.9999 </r>
       <r>   -0.0997    0.9846 </r>
       <r>    1.3771    0.0000 </r>
       <r>    2.0483    0.0000 </r>
       <r>    2.1417    0.0000 </r>
       <r>    2.1729    0.0000 </r>
       <r>    2.3081    0.0000 </r>
       <r>    2.6242    0.0000 </r>
      </set>
      <set comment="kpoint 16">
       <r>  -12.2829    1.0000 </r>
       <r>  -11.4345    1.0000 </r>
       <r>  -10.4779    1.0000 </r>
       <r>  -10.1641    1.0000 </r>
       <r>   -5.0396    1.0000 </r>
       <r>   -4.6242    1.0000 </r>
       <r>   -4.3818    1.0000 </r>
       <r>   -3.1611    1.0000 </r>
       <r>   -2.4990    1.0000 </r>
       <r>   -2.0064    1.0000 </r>
       <r>   -1.9704    1.0000 </r>
       <r>   -1.7011    1.0000 </r>
       <r>   -1.5078    1.0000 </r>
       <r>   -1.4261    1.0000 </r>
       <r>   -1.1097    1.0000 </r>
       <r>   -0.6363    1.0000 </r>
       <r>   -0.4190    0.9997 </r>
       <r>   -0.1462    0.9915 </r>
       <r>    1.4621    0.0000 </r>
       <r>    1.9400    0.0000 </r>
       <r>    2.4675    0.0000 </r>
       <r>    2.4900    0.0000 </r>
       <r>    2.6989    0.0000 </r>
       <r>    2.9801    0.0000 </r>
      </set>
      <set comment="kpoint 17">
       <r>  -12.4040    1.0000 </r>
       <r>  -11.5227    1.0000 </r>
       <r>  -10.5347    1.0000 </r>
       <r>  -10.2093    1.0000 </r>
       <r>   -5.1858    1.0000 </r>
       <r>   -4.7561    1.0000 </r>
       <r>   -4.4087    1.0000 </r>
       <r>   -3.1965    1.0000 </r>
       <r>   -2.3307    1.0000 </r>
       <r>   -1.7723    1.0000 </r>
       <r>   -1.7474    1.0000 </r>
       <r>   -1.5225    1.0000 </r>
       <r>   -1.5123    1.0000 </r>
       <r>   -1.1217    1.0000 </r>
       <r>   -0.9158    1.0000 </r>
       <r>   -0.7227    1.0000 </r>
       <r>   -0.3954    0.9997 </r>
       <r>   -0.1778    0.9943 </r>
       <r>    1.4795    0.0000 </r>
       <r>    1.8179    0.0000 </r>
       <r>    2.8329    0.0000 </r>
       <r>    2.9715    0.0000 </r>
       <r>    3.2156    0.0000 </r>
       <r>    3.2421    0.0000 </r>
      </set>
      <set comment="kpoint 18">
       <r>  -12.4655    1.0000 </r>
       <r>  -11.5676    1.0000 </r>
       <r>  -10.5655    1.0000 </r>
       <r>  -10.2340    1.0000 </r>
       <r>   -5.2602    1.0000 </r>
       <r>   -4.8245    1.0000 </r>
       <r>   -4.4263    1.0000 </r>
       <r>   -3.2196    1.0000 </r>
       <r>   -2.2220    1.0000 </r>
       <r>   -1.6431    1.0000 </r>
       <r>   -1.6080    1.0000 </r>
       <r>   -1.5743    1.0000 </r>
       <r>   -1.5287    1.0000 </r>
       <r>   -0.8266    1.0000 </r>
       <r>   -0.7967    1.0000 </r>
       <r>   -0.7290    1.0000 </r>
       <r>   -0.3896    0.9996 </r>
       <r>   -0.2217    0.9968 </r>
       <r>    1.4533    0.0000 </r>
       <r>    1.7804    0.0000 </r>
       <r>    3.1033    0.0000 </r>
       <r>    3.1665    0.0000 </r>
       <r>    3.3375    0.0000 </r>
       <r>    3.3723    0.0000 </r>
      </set>
      <set comment="kpoint 19">
       <r>  -12.4449    1.0000 </r>
       <r>  -11.5526    1.0000 </r>
       <r>  -10.6105    1.0000 </r>
       <r>  -10.2632    1.0000 </r>
       <r>   -5.1923    1.0000 </r>
       <r>   -4.8015    1.0000 </r>
       <r>   -4.3694    1.0000 </r>
       <r>   -3.2271    1.0000 </r>
       <r>   -2.2071    1.0000 </r>
       <r>   -1.6895    1.0000 </r>
       <r>   -1.6541    1.0000 </r>
       <r>   -1.5580    1.0000 </r>
       <r>   -1.5185    1.0000 </r>
       <r>   -0.8574    1.0000 </r>
       <r>   -0.7669    1.0000 </r>
       <r>   -0.7593    1.0000 </r>
       <r>   -0.3910    0.9996 </r>
       <r>   -0.2455    0.9976 </r>
       <r>    1.4706    0.0000 </r>
       <r>    1.7528    0.0000 </r>
       <r>    3.0051    0.0000 </r>
       <r>    3.1837    0.0000 </r>
       <r>    3.2014    0.0000 </r>
       <r>    3.3110    0.0000 </r>
      </set>
      <set comment="kpoint 20">
       <r>  -12.3837    1.0000 </r>
       <r>  -11.5079    1.0000 </r>
       <r>  -10.5784    1.0000 </r>
       <r>  -10.2379    1.0000 </r>
       <r>   -5.1213    1.0000 </r>
       <r>   -4.7337    1.0000 </r>
       <r>   -4.3528    1.0000 </r>
       <r>   -3.2018    1.0000 </r>
       <r>   -2.3243    1.0000 </r>
       <r>   -1.8109    1.0000 </r>
       <r>   -1.7928    1.0000 </r>
       <r>   -1.5052    1.0000 </r>
       <r>   -1.4924    1.0000 </r>
       <r>   -1.1400    1.0000 </r>
       <r>   -0.9366    1.0000 </r>
       <r>   -0.7134    1.0000 </r>
       <r>   -0.3983    0.9997 </r>
       <r>   -0.2013    0.9958 </r>
       <r>    1.4915    0.0000 </r>
       <r>    1.7819    0.0000 </r>
       <r>    2.7598    0.0000 </r>
       <r>    2.8685    0.0000 </r>
       <r>    3.1288    0.0000 </r>
       <r>    3.2128    0.0000 </r>
      </set>
      <set comment="kpoint 21">
       <r>  -12.2630    1.0000 </r>
       <r>  -11.4200    1.0000 </r>
       <r>  -10.5192    1.0000 </r>
       <r>  -10.1914    1.0000 </r>
       <r>   -4.9832    1.0000 </r>
       <r>   -4.6030    1.0000 </r>
       <r>   -4.3284    1.0000 </r>
       <r>   -3.1605    1.0000 </r>
       <r>   -2.5008    1.0000 </r>
       <r>   -2.0512    1.0000 </r>
       <r>   -2.0069    1.0000 </r>
       <r>   -1.7063    1.0000 </r>
       <r>   -1.4784    1.0000 </r>
       <r>   -1.4067    1.0000 </r>
       <r>   -1.1046    1.0000 </r>
       <r>   -0.6632    1.0000 </r>
       <r>   -0.4252    0.9998 </r>
       <r>   -0.1717    0.9938 </r>
       <r>    1.4804    0.0000 </r>
       <r>    1.8851    0.0000 </r>
       <r>    2.4135    0.0000 </r>
       <r>    2.4333    0.0000 </r>
       <r>    2.6758    0.0000 </r>
       <r>    2.9669    0.0000 </r>
      </set>
      <set comment="kpoint 22">
       <r>  -12.0869    1.0000 </r>
       <r>  -11.2920    1.0000 </r>
       <r>  -10.4426    1.0000 </r>
       <r>  -10.1321    1.0000 </r>
       <r>   -4.7877    1.0000 </r>
       <r>   -4.4211    1.0000 </r>
       <r>   -4.3131    1.0000 </r>
       <r>   -3.1295    1.0000 </r>
       <r>   -2.6741    1.0000 </r>
       <r>   -2.3975    1.0000 </r>
       <r>   -2.3094    1.0000 </r>
       <r>   -2.2392    1.0000 </r>
       <r>   -1.4987    1.0000 </r>
       <r>   -1.3863    1.0000 </r>
       <r>   -1.2802    1.0000 </r>
       <r>   -0.6451    1.0000 </r>
       <r>   -0.4880    0.9999 </r>
       <r>   -0.1299    0.9895 </r>
       <r>    1.4058    0.0000 </r>
       <r>    1.9967    0.0000 </r>
       <r>    2.0705    0.0000 </r>
       <r>    2.1819    0.0000 </r>
       <r>    2.3006    0.0000 </r>
       <r>    2.6331    0.0000 </r>
      </set>
      <set comment="kpoint 23">
       <r>  -11.8617    1.0000 </r>
       <r>  -11.1292    1.0000 </r>
       <r>  -10.3648    1.0000 </r>
       <r>  -10.0731    1.0000 </r>
       <r>   -4.5602    1.0000 </r>
       <r>   -4.3234    1.0000 </r>
       <r>   -4.2111    1.0000 </r>
       <r>   -3.2156    1.0000 </r>
       <r>   -2.7945    1.0000 </r>
       <r>   -2.7870    1.0000 </r>
       <r>   -2.7454    1.0000 </r>
       <r>   -2.4973    1.0000 </r>
       <r>   -1.7568    1.0000 </r>
       <r>   -1.5481    1.0000 </r>
       <r>   -1.1809    1.0000 </r>
       <r>   -0.6727    1.0000 </r>
       <r>   -0.5700    1.0000 </r>
       <r>   -0.0618    0.9751 </r>
       <r>    1.2972    0.0000 </r>
       <r>    1.6868    0.0000 </r>
       <r>    2.0690    0.0000 </r>
       <r>    2.0696    0.0000 </r>
       <r>    2.2749    0.0000 </r>
       <r>    2.2830    0.0000 </r>
      </set>
      <set comment="kpoint 24">
       <r>  -11.5972    1.0000 </r>
       <r>  -10.9393    1.0000 </r>
       <r>  -10.3084    1.0000 </r>
       <r>  -10.0317    1.0000 </r>
       <r>   -4.3838    1.0000 </r>
       <r>   -4.3553    1.0000 </r>
       <r>   -4.0306    1.0000 </r>
       <r>   -3.4701    1.0000 </r>
       <r>   -3.1434    1.0000 </r>
       <r>   -2.8404    1.0000 </r>
       <r>   -2.8324    1.0000 </r>
       <r>   -2.8022    1.0000 </r>
       <r>   -2.1271    1.0000 </r>
       <r>   -1.5978    1.0000 </r>
       <r>   -1.2370    1.0000 </r>
       <r>   -0.7518    1.0000 </r>
       <r>   -0.5680    1.0000 </r>
       <r>    0.0080    0.9410 </r>
       <r>    1.2054    0.0000 </r>
       <r>    1.4758    0.0000 </r>
       <r>    1.9766    0.0000 </r>
       <r>    1.9842    0.0000 </r>
       <r>    2.0786    0.0000 </r>
       <r>    2.4486    0.0000 </r>
      </set>
      <set comment="kpoint 25">
       <r>  -11.3076    1.0000 </r>
       <r>  -10.7332    1.0000 </r>
       <r>  -10.3004    1.0000 </r>
       <r>  -10.0268    1.0000 </r>
       <r>   -4.4248    1.0000 </r>
       <r>   -4.3716    1.0000 </r>
       <r>   -4.0358    1.0000 </r>
       <r>   -3.4564    1.0000 </r>
       <r>   -3.2974    1.0000 </r>
       <r>   -3.1753    1.0000 </r>
       <r>   -2.8293    1.0000 </r>
       <r>   -2.8092    1.0000 </r>
       <r>   -2.4039    1.0000 </r>
       <r>   -1.6080    1.0000 </r>
       <r>   -1.4788    1.0000 </r>
       <r>   -0.8815    1.0000 </r>
       <r>   -0.4685    0.9999 </r>
       <r>    0.0185    0.9330 </r>
       <r>    1.1973    0.0000 </r>
       <r>    1.3508    0.0000 </r>
       <r>    1.8208    0.0000 </r>
       <r>    1.9910    0.0000 </r>
       <r>    2.1524    0.0000 </r>
       <r>    2.4684    0.0000 </r>
      </set>
      <set comment="kpoint 26">
       <r>  -11.0128    1.0000 </r>
       <r>  -10.5255    1.0000 </r>
       <r>  -10.3654    1.0000 </r>
       <r>  -10.0737    1.0000 </r>
       <r>   -4.5598    1.0000 </r>
       <r>   -4.3229    1.0000 </r>
       <r>   -4.2580    1.0000 </r>
       <r>   -3.5704    1.0000 </r>
       <r>   -3.2159    1.0000 </r>
       <r>   -3.2096    1.0000 </r>
       <r>   -2.7939    1.0000 </r>
       <r>   -2.7451    1.0000 </r>
       <r>   -2.5779    1.0000 </r>
       <r>   -1.8141    1.0000 </r>
       <r>   -1.5485    1.0000 </r>
       <r>   -1.0515    1.0000 </r>
       <r>   -0.3725    0.9995 </r>
       <r>   -0.0614    0.9750 </r>
       <r>    1.2967    0.0000 </r>
       <r>    1.3694    0.0000 </r>
       <r>    1.7421    0.0000 </r>
       <r>    2.0692    0.0000 </r>
       <r>    2.2216    0.0000 </r>
       <r>    2.2821    0.0000 </r>
      </set>
      <set comment="kpoint 27">
       <r>  -10.7386    1.0000 </r>
       <r>  -10.5145    1.0000 </r>
       <r>  -10.3341    1.0000 </r>
       <r>  -10.1783    1.0000 </r>
       <r>   -4.5903    1.0000 </r>
       <r>   -4.4785    1.0000 </r>
       <r>   -4.1745    1.0000 </r>
       <r>   -3.9180    1.0000 </r>
       <r>   -3.0933    1.0000 </r>
       <r>   -3.0628    1.0000 </r>
       <r>   -2.7486    1.0000 </r>
       <r>   -2.6836    1.0000 </r>
       <r>   -2.5410    1.0000 </r>
       <r>   -2.1883    1.0000 </r>
       <r>   -1.4176    1.0000 </r>
       <r>   -1.2404    1.0000 </r>
       <r>   -0.2898    0.9987 </r>
       <r>   -0.1837    0.9947 </r>
       <r>    1.4377    0.0000 </r>
       <r>    1.4926    0.0000 </r>
       <r>    1.7329    0.0000 </r>
       <r>    1.9728    0.0000 </r>
       <r>    2.1645    0.0000 </r>
       <r>    2.2281    0.0000 </r>
      </set>
      <set comment="kpoint 28">
       <r>  -10.7386    1.0000 </r>
       <r>  -10.5145    1.0000 </r>
       <r>  -10.3341    1.0000 </r>
       <r>  -10.1783    1.0000 </r>
       <r>   -4.5903    1.0000 </r>
       <r>   -4.4785    1.0000 </r>
       <r>   -4.1745    1.0000 </r>
       <r>   -3.9180    1.0000 </r>
       <r>   -3.0933    1.0000 </r>
       <r>   -3.0628    1.0000 </r>
       <r>   -2.7486    1.0000 </r>
       <r>   -2.6836    1.0000 </r>
       <r>   -2.5410    1.0000 </r>
       <r>   -2.1883    1.0000 </r>
       <r>   -1.4176    1.0000 </r>
       <r>   -1.2404    1.0000 </r>
       <r>   -0.2898    0.9987 </r>
       <r>   -0.1837    0.9947 </r>
       <r>    1.4377    0.0000 </r>
       <r>    1.4926    0.0000 </r>
       <r>    1.7329    0.0000 </r>
       <r>    1.9728    0.0000 </r>
       <r>    2.1645    0.0000 </r>
       <r>    2.2281    0.0000 </r>
      </set>
      <set comment="kpoint 29">
       <r>  -11.0128    1.0000 </r>
       <r>  -10.5255    1.0000 </r>
       <r>  -10.3654    1.0000 </r>
       <r>  -10.0737    1.0000 </r>
       <r>   -4.5598    1.0000 </r>
       <r>   -4.3229    1.0000 </r>
       <r>   -4.2580    1.0000 </r>
       <r>   -3.5704    1.0000 </r>
       <r>   -3.2159    1.0000 </r>
       <r>   -3.2096    1.0000 </r>
       <r>   -2.7939    1.0000 </r>
       <r>   -2.7451    1.0000 </r>
       <r>   -2.5779    1.0000 </r>
       <r>   -1.8141    1.0000 </r>
       <r>   -1.5485    1.0000 </r>
       <r>   -1.0515    1.0000 </r>
       <r>   -0.3725    0.9995 </r>
       <r>   -0.0614    0.9750 </r>
       <r>    1.2967    0.0000 </r>
       <r>    1.3694    0.0000 </r>
       <r>    1.7421    0.0000 </r>
       <r>    2.0692    0.0000 </r>
       <r>    2.2216    0.0000 </r>
       <r>    2.2821    0.0000 </r>
      </set>
      <set comment="kpoint 30">
       <r>  -11.3076    1.0000 </r>
       <r>  -10.7332    1.0000 </r>
       <r>  -10.3004    1.0000 </r>
       <r>  -10.0268    1.0000 </r>
       <r>   -4.4248    1.0000 </r>
       <r>   -4.3716    1.0000 </r>
       <r>   -4.0358    1.0000 </r>
       <r>   -3.4564    1.0000 </r>
       <r>   -3.2974    1.0000 </r>
       <r>   -3.1753    1.0000 </r>
       <r>   -2.8293    1.0000 </r>
       <r>   -2.8092    1.0000 </r>
       <r>   -2.4039    1.0000 </r>
       <r>   -1.6080    1.0000 </r>
       <r>   -1.4788    1.0000 </r>
       <r>   -0.8815    1.0000 </r>
       <r>   -0.4685    0.9999 </r>
       <r>    0.0185    0.9330 </r>
       <r>    1.1973    0.0000 </r>
       <r>    1.3508    0.0000 </r>
       <r>    1.8208    0.0000 </r>
       <r>    1.9910    0.0000 </r>
       <r>    2.1524    0.0000 </r>
       <r>    2.4684    0.0000 </r>
      </set>
      <set comment="kpoint 31">
       <r>  -11.5972    1.0000 </r>
       <r>  -10.9393    1.0000 </r>
       <r>  -10.3084    1.0000 </r>
       <r>  -10.0317    1.0000 </r>
       <r>   -4.3838    1.0000 </r>
       <r>   -4.3553    1.0000 </r>
       <r>   -4.0306    1.0000 </r>
       <r>   -3.4701    1.0000 </r>
       <r>   -3.1434    1.0000 </r>
       <r>   -2.8404    1.0000 </r>
       <r>   -2.8324    1.0000 </r>
       <r>   -2.8022    1.0000 </r>
       <r>   -2.1271    1.0000 </r>
       <r>   -1.5978    1.0000 </r>
       <r>   -1.2370    1.0000 </r>
       <r>   -0.7518    1.0000 </r>
       <r>   -0.5680    1.0000 </r>
       <r>    0.0080    0.9410 </r>
       <r>    1.2054    0.0000 </r>
       <r>    1.4758    0.0000 </r>
       <r>    1.9766    0.0000 </r>
       <r>    1.9842    0.0000 </r>
       <r>    2.0786    0.0000 </r>
       <r>    2.4486    0.0000 </r>
      </set>
      <set comment="kpoint 32">
       <r>  -11.8617    1.0000 </r>
       <r>  -11.1292    1.0000 </r>
       <r>  -10.3648    1.0000 </r>
       <r>  -10.0731    1.0000 </r>
       <r>   -4.5602    1.0000 </r>
       <r>   -4.3234    1.0000 </r>
       <r>   -4.2111    1.0000 </r>
       <r>   -3.2156    1.0000 </r>
       <r>   -2.7945    1.0000 </r>
       <r>   -2.7870    1.0000 </r>
       <r>   -2.7454    1.0000 </r>
       <r>   -2.4973    1.0000 </r>
       <r>   -1.7568    1.0000 </r>
       <r>   -1.5481    1.0000 </r>
       <r>   -1.1809    1.0000 </r>
       <r>   -0.6727    1.0000 </r>
       <r>   -0.5700    1.0000 </r>
       <r>   -0.0618    0.9751 </r>
       <r>    1.2972    0.0000 </r>
       <r>    1.6868    0.0000 </r>
       <r>    2.0690    0.0000 </r>
       <r>    2.0696    0.0000 </r>
       <r>    2.2749    0.0000 </r>
       <r>    2.2830    0.0000 </r>
      </set>
      <set comment="kpoint 33">
       <r>  -12.0869    1.0000 </r>
       <r>  -11.2920    1.0000 </r>
       <r>  -10.4426    1.0000 </r>
       <r>  -10.1321    1.0000 </r>
       <r>   -4.7877    1.0000 </r>
       <r>   -4.4211    1.0000 </r>
       <r>   -4.3131    1.0000 </r>
       <r>   -3.1295    1.0000 </r>
       <r>   -2.6741    1.0000 </r>
       <r>   -2.3975    1.0000 </r>
       <r>   -2.3094    1.0000 </r>
       <r>   -2.2392    1.0000 </r>
       <r>   -1.4987    1.0000 </r>
       <r>   -1.3863    1.0000 </r>
       <r>   -1.2802    1.0000 </r>
       <r>   -0.6451    1.0000 </r>
       <r>   -0.4880    0.9999 </r>
       <r>   -0.1299    0.9895 </r>
       <r>    1.4058    0.0000 </r>
       <r>    1.9967    0.0000 </r>
       <r>    2.0705    0.0000 </r>
       <r>    2.1819    0.0000 </r>
       <r>    2.3006    0.0000 </r>
       <r>    2.6331    0.0000 </r>
      </set>
      <set comment="kpoint 34">
       <r>  -12.2630    1.0000 </r>
       <r>  -11.4200    1.0000 </r>
       <r>  -10.5192    1.0000 </r>
       <r>  -10.1914    1.0000 </r>
       <r>   -4.9832    1.0000 </r>
       <r>   -4.6030    1.0000 </r>
       <r>   -4.3284    1.0000 </r>
       <r>   -3.1605    1.0000 </r>
       <r>   -2.5008    1.0000 </r>
       <r>   -2.0512    1.0000 </r>
       <r>   -2.0069    1.0000 </r>
       <r>   -1.7063    1.0000 </r>
       <r>   -1.4784    1.0000 </r>
       <r>   -1.4067    1.0000 </r>
       <r>   -1.1046    1.0000 </r>
       <r>   -0.6632    1.0000 </r>
       <r>   -0.4252    0.9998 </r>
       <r>   -0.1717    0.9938 </r>
       <r>    1.4804    0.0000 </r>
       <r>    1.8851    0.0000 </r>
       <r>    2.4135    0.0000 </r>
       <r>    2.4333    0.0000 </r>
       <r>    2.6758    0.0000 </r>
       <r>    2.9669    0.0000 </r>
      </set>
      <set comment="kpoint 35">
       <r>  -12.3837    1.0000 </r>
       <r>  -11.5079    1.0000 </r>
       <r>  -10.5784    1.0000 </r>
       <r>  -10.2379    1.0000 </r>
       <r>   -5.1213    1.0000 </r>
       <r>   -4.7337    1.0000 </r>
       <r>   -4.3528    1.0000 </r>
       <r>   -3.2018    1.0000 </r>
       <r>   -2.3243    1.0000 </r>
       <r>   -1.8109    1.0000 </r>
       <r>   -1.7928    1.0000 </r>
       <r>   -1.5052    1.0000 </r>
       <r>   -1.4924    1.0000 </r>
       <r>   -1.1400    1.0000 </r>
       <r>   -0.9366    1.0000 </r>
       <r>   -0.7134    1.0000 </r>
       <r>   -0.3983    0.9997 </r>
       <r>   -0.2013    0.9958 </r>
       <r>    1.4915    0.0000 </r>
       <r>    1.7819    0.0000 </r>
       <r>    2.7598    0.0000 </r>
       <r>    2.8685    0.0000 </r>
       <r>    3.1288    0.0000 </r>
       <r>    3.2235    0.0000 </r>
      </set>
      <set comment="kpoint 36">
       <r>  -12.4449    1.0000 </r>
       <r>  -11.5526    1.0000 </r>
       <r>  -10.6105    1.0000 </r>
       <r>  -10.2632    1.0000 </r>
       <r>   -5.1923    1.0000 </r>
       <r>   -4.8015    1.0000 </r>
       <r>   -4.3694    1.0000 </r>
       <r>   -3.2271    1.0000 </r>
       <r>   -2.2071    1.0000 </r>
       <r>   -1.6895    1.0000 </r>
       <r>   -1.6541    1.0000 </r>
       <r>   -1.5580    1.0000 </r>
       <r>   -1.5185    1.0000 </r>
       <r>   -0.8574    1.0000 </r>
       <r>   -0.7669    1.0000 </r>
       <r>   -0.7593    1.0000 </r>
       <r>   -0.3910    0.9996 </r>
       <r>   -0.2455    0.9976 </r>
       <r>    1.4706    0.0000 </r>
       <r>    1.7528    0.0000 </r>
       <r>    3.0051    0.0000 </r>
       <r>    3.1837    0.0000 </r>
       <r>    3.2014    0.0000 </r>
       <r>    3.3095    0.0000 </r>
      </set>
      <set comment="kpoint 37">
       <r>  -12.4040    1.0000 </r>
       <r>  -11.5227    1.0000 </r>
       <r>  -10.6960    1.0000 </r>
       <r>  -10.3192    1.0000 </r>
       <r>   -5.0622    1.0000 </r>
       <r>   -4.7561    1.0000 </r>
       <r>   -4.2588    1.0000 </r>
       <r>   -3.2440    1.0000 </r>
       <r>   -2.1774    1.0000 </r>
       <r>   -1.7721    1.0000 </r>
       <r>   -1.7459    1.0000 </r>
       <r>   -1.5241    1.0000 </r>
       <r>   -1.4975    1.0000 </r>
       <r>   -0.9169    1.0000 </r>
       <r>   -0.8108    1.0000 </r>
       <r>   -0.7217    1.0000 </r>
       <r>   -0.3953    0.9997 </r>
       <r>   -0.2914    0.9987 </r>
       <r>    1.5043    0.0000 </r>
       <r>    1.7075    0.0000 </r>
       <r>    2.8337    0.0000 </r>
       <r>    2.9732    0.0000 </r>
       <r>    3.2172    0.0000 </r>
       <r>    3.2241    0.0000 </r>
      </set>
      <set comment="kpoint 38">
       <r>  -12.3432    1.0000 </r>
       <r>  -11.4783    1.0000 </r>
       <r>  -10.6618    1.0000 </r>
       <r>  -10.2927    1.0000 </r>
[...]
       <r>    2.2891    0.0000 </r>
      </set>
      <set comment="kpoint 159">
       <r>  -11.4638    1.0000 </r>
       <r>  -11.3215    1.0000 </r>
       <r>  -10.8438    1.0000 </r>
       <r>  -10.7424    1.0000 </r>
       <r>   -4.0066    1.0000 </r>
       <r>   -3.9895    1.0000 </r>
       <r>   -3.2710    1.0000 </r>
       <r>   -3.2375    1.0000 </r>
       <r>   -3.0988    1.0000 </r>
       <r>   -2.9329    1.0000 </r>
       <r>   -2.4813    1.0000 </r>
       <r>   -2.3287    1.0000 </r>
       <r>   -1.5443    1.0000 </r>
       <r>   -1.3745    1.0000 </r>
       <r>   -0.8220    1.0000 </r>
       <r>   -0.7693    1.0000 </r>
       <r>   -0.5168    0.9999 </r>
       <r>   -0.4633    0.9999 </r>
       <r>    1.3310    0.0000 </r>
       <r>    1.3903    0.0000 </r>
       <r>    1.8232    0.0000 </r>
       <r>    1.8865    0.0000 </r>
       <r>    2.0652    0.0000 </r>
       <r>    2.0740    0.0000 </r>
      </set>
      <set comment="kpoint 160">
       <r>  -11.6134    1.0000 </r>
       <r>  -11.4637    1.0000 </r>
       <r>  -10.9505    1.0000 </r>
       <r>  -10.8436    1.0000 </r>
       <r>   -4.0316    1.0000 </r>
       <r>   -3.9894    1.0000 </r>
       <r>   -3.2370    1.0000 </r>
       <r>   -3.1003    1.0000 </r>
       <r>   -2.9323    1.0000 </r>
       <r>   -2.7198    1.0000 </r>
       <r>   -2.3294    1.0000 </r>
       <r>   -2.2091    1.0000 </r>
       <r>   -1.3750    1.0000 </r>
       <r>   -1.2850    1.0000 </r>
       <r>   -0.7693    1.0000 </r>
       <r>   -0.6788    1.0000 </r>
       <r>   -0.5526    1.0000 </r>
       <r>   -0.5167    0.9999 </r>
       <r>    1.3903    0.0000 </r>
       <r>    1.4706    0.0000 </r>
       <r>    1.8860    0.0000 </r>
       <r>    1.9753    0.0000 </r>
       <r>    2.0096    0.0000 </r>
       <r>    2.0652    0.0000 </r>
      </set>
      <set comment="kpoint 161">
       <r>  -11.7179    1.0000 </r>
       <r>  -11.5637    1.0000 </r>
       <r>  -11.0258    1.0000 </r>
       <r>  -10.9155    1.0000 </r>
       <r>   -4.1029    1.0000 </r>
       <r>   -4.0314    1.0000 </r>
       <r>   -3.2159    1.0000 </r>
       <r>   -3.0133    1.0000 </r>
       <r>   -2.9210    1.0000 </r>
       <r>   -2.6937    1.0000 </r>
       <r>   -2.0148    1.0000 </r>
       <r>   -1.9004    1.0000 </r>
       <r>   -1.1497    1.0000 </r>
       <r>   -1.1474    1.0000 </r>
       <r>   -0.8790    1.0000 </r>
       <r>   -0.7660    1.0000 </r>
       <r>   -0.6029    1.0000 </r>
       <r>   -0.6005    1.0000 </r>
       <r>    1.4852    0.0000 </r>
       <r>    1.5652    0.0000 </r>
       <r>    1.9960    0.0000 </r>
       <r>    2.1068    0.0000 </r>
       <r>    2.1245    0.0000 </r>
       <r>    2.1932    0.0000 </r>
      </set>
      <set comment="kpoint 162">
       <r>  -11.7715    1.0000 </r>
       <r>  -11.6152    1.0000 </r>
       <r>  -11.0645    1.0000 </r>
       <r>  -10.9528    1.0000 </r>
       <r>   -4.1481    1.0000 </r>
       <r>   -4.0656    1.0000 </r>
       <r>   -3.2093    1.0000 </r>
       <r>   -2.9777    1.0000 </r>
       <r>   -2.9354    1.0000 </r>
       <r>   -2.7053    1.0000 </r>
       <r>   -1.7219    1.0000 </r>
       <r>   -1.6050    1.0000 </r>
       <r>   -1.0679    1.0000 </r>
       <r>   -1.0384    1.0000 </r>
       <r>   -0.9501    1.0000 </r>
       <r>   -0.9486    1.0000 </r>
       <r>   -0.7148    1.0000 </r>
       <r>   -0.6546    1.0000 </r>
       <r>    1.5393    0.0000 </r>
       <r>    1.6119    0.0000 </r>
       <r>    2.1181    0.0000 </r>
       <r>    2.2197    0.0000 </r>
       <r>    2.2763    0.0000 </r>
       <r>    2.3166    0.0000 </r>
      </set>
     </set>
    </set>
   </array>
  </eigenvalues>
  <separator name="orbital magnetization" >
   <v name="MAGDIPOLOUT">      0.00000000      0.00000000      0.00000000</v>
  </separator>
  <dos>
   <i name="efermi">      0.22289082 </i>
   <total>
    <array>
     <dimension dim="1">gridpoints</dimension>
     <dimension dim="2">spin</dimension>
     <field>energy</field>
     <field>total</field>
     <field>integrated</field>
     <set>
      <set comment="spin 1">
       <r>   -13.2581     0.0000     0.0000 </r>
       <r>   -13.1999     0.0000     0.0000 </r>
       <r>   -13.1418     0.0001     0.0000 </r>
       <r>   -13.0837     0.0002     0.0000 </r>
       <r>   -13.0256     0.0007     0.0001 </r>
       <r>   -12.9675     0.0013     0.0001 </r>
       <r>   -12.9093     0.0030     0.0003 </r>
       <r>   -12.8512     0.0061     0.0007 </r>
       <r>   -12.7931     0.0128     0.0014 </r>
       <r>   -12.7350     0.0268     0.0030 </r>
       <r>   -12.6769     0.0549     0.0061 </r>
       <r>   -12.6187     0.1100     0.0125 </r>
       <r>   -12.5606     0.2086     0.0247 </r>
       <r>   -12.5025     0.3636     0.0458 </r>
       <r>   -12.4444     0.5611     0.0784 </r>
       <r>   -12.3863     0.7588     0.1225 </r>
       <r>   -12.3281     0.9148     0.1757 </r>
       <r>   -12.2700     1.0187     0.2349 </r>
       <r>   -12.2119     1.0801     0.2977 </r>
       <r>   -12.1538     1.1188     0.3627 </r>
       <r>   -12.0957     1.1496     0.4295 </r>
       <r>   -12.0375     1.1708     0.4975 </r>
       <r>   -11.9794     1.1849     0.5664 </r>
       <r>   -11.9213     1.2097     0.6367 </r>
       <r>   -11.8632     1.2517     0.7095 </r>
       <r>   -11.8051     1.2996     0.7850 </r>
       <r>   -11.7469     1.3609     0.8641 </r>
       <r>   -11.6888     1.4780     0.9501 </r>
       <r>   -11.6307     1.6883     1.0482 </r>
       <r>   -11.5726     1.9806     1.1634 </r>
       <r>   -11.5145     2.2866     1.2963 </r>
       <r>   -11.4564     2.5494     1.4445 </r>
       <r>   -11.3982     2.7604     1.6050 </r>
       <r>   -11.3401     2.9360     1.7757 </r>
       <r>   -11.2820     3.0807     1.9547 </r>
       <r>   -11.2239     3.1810     2.1397 </r>
       <r>   -11.1658     3.2602     2.3292 </r>
       <r>   -11.1076     3.3590     2.5244 </r>
       <r>   -11.0495     3.4962     2.7277 </r>
       <r>   -10.9914     3.6642     2.9407 </r>
       <r>   -10.9333     3.8407     3.1640 </r>
       <r>   -10.8752     4.0256     3.3980 </r>
       <r>   -10.8170     4.2650     3.6460 </r>
       <r>   -10.7589     4.6041     3.9136 </r>
       <r>   -10.7008     5.0164     4.2052 </r>
       <r>   -10.6427     5.4291     4.5209 </r>
       <r>   -10.5846     5.8010     4.8582 </r>
       <r>   -10.5264     6.0724     5.2112 </r>
       <r>   -10.4683     6.1710     5.5699 </r>
       <r>   -10.4102     6.1246     5.9260 </r>
       <r>   -10.3521     6.0232     6.2761 </r>
       <r>   -10.2940     5.8552     6.6166 </r>
       <r>   -10.2358     5.5236     6.9377 </r>
       <r>   -10.1777     4.9654     7.2264 </r>
       <r>   -10.1196     4.2011     7.4707 </r>
       <r>   -10.0615     3.3085     7.6632 </r>
       <r>   -10.0034     2.3877     7.8021 </r>
       <r>    -9.9452     1.5480     7.8922 </r>
       <r>    -9.8871     0.8990     7.9448 </r>
       <r>    -9.8290     0.4795     7.9728 </r>
       <r>    -9.7709     0.2403     7.9869 </r>
       <r>    -9.7128     0.1161     7.9938 </r>
       <r>    -9.6546     0.0538     7.9972 </r>
       <r>    -9.5965     0.0242     7.9987 </r>
       <r>    -9.5384     0.0096     7.9995 </r>
       <r>    -9.4803     0.0037     7.9998 </r>
       <r>    -9.4222     0.0008     8.0000 </r>
       <r>    -9.3640     0.0000     8.0000 </r>
       <r>    -9.3059     0.0000     8.0000 </r>
       <r>    -9.2478     0.0000     8.0000 </r>
       <r>    -9.1897     0.0000     8.0000 </r>
       <r>    -9.1316     0.0000     8.0000 </r>
       <r>    -9.0735     0.0000     8.0000 </r>
       <r>    -9.0153     0.0000     8.0000 </r>
       <r>    -8.9572     0.0000     8.0000 </r>
       <r>    -8.8991     0.0000     8.0000 </r>
       <r>    -8.8410     0.0000     8.0000 </r>
       <r>    -8.7829     0.0000     8.0000 </r>
       <r>    -8.7247     0.0000     8.0000 </r>
       <r>    -8.6666     0.0000     8.0000 </r>
       <r>    -8.6085     0.0000     8.0000 </r>
       <r>    -8.5504     0.0000     8.0000 </r>
       <r>    -8.4923     0.0000     8.0000 </r>
       <r>    -8.4341     0.0000     8.0000 </r>
       <r>    -8.3760     0.0000     8.0000 </r>
       <r>    -8.3179     0.0000     8.0000 </r>
       <r>    -8.2598     0.0000     8.0000 </r>
       <r>    -8.2017     0.0000     8.0000 </r>
       <r>    -8.1435     0.0000     8.0000 </r>
       <r>    -8.0854     0.0000     8.0000 </r>
       <r>    -8.0273     0.0000     8.0000 </r>
       <r>    -7.9692     0.0000     8.0000 </r>
       <r>    -7.9111     0.0000     8.0000 </r>
       <r>    -7.8529     0.0000     8.0000 </r>
       <r>    -7.7948     0.0000     8.0000 </r>
       <r>    -7.7367     0.0000     8.0000 </r>
       <r>    -7.6786     0.0000     8.0000 </r>
       <r>    -7.6205     0.0000     8.0000 </r>
       <r>    -7.5623     0.0000     8.0000 </r>
       <r>    -7.5042     0.0000     8.0000 </r>
       <r>    -7.4461     0.0000     8.0000 </r>
       <r>    -7.3880     0.0000     8.0000 </r>
       <r>    -7.3299     0.0000     8.0000 </r>
       <r>    -7.2717     0.0000     8.0000 </r>
       <r>    -7.2136     0.0000     8.0000 </r>
       <r>    -7.1555     0.0000     8.0000 </r>
       <r>    -7.0974     0.0000     8.0000 </r>
       <r>    -7.0393     0.0000     8.0000 </r>
       <r>    -6.9812     0.0000     8.0000 </r>
       <r>    -6.9230     0.0000     8.0000 </r>
       <r>    -6.8649     0.0000     8.0000 </r>
       <r>    -6.8068     0.0000     8.0000 </r>
       <r>    -6.7487     0.0000     8.0000 </r>
       <r>    -6.6906     0.0000     8.0000 </r>
       <r>    -6.6324     0.0000     8.0000 </r>
       <r>    -6.5743     0.0000     8.0000 </r>
       <r>    -6.5162     0.0000     8.0000 </r>
       <r>    -6.4581     0.0000     8.0000 </r>
       <r>    -6.4000     0.0000     8.0000 </r>
       <r>    -6.3418     0.0000     8.0000 </r>
       <r>    -6.2837     0.0000     8.0000 </r>
       <r>    -6.2256     0.0000     8.0000 </r>
       <r>    -6.1675     0.0000     8.0000 </r>
       <r>    -6.1094     0.0000     8.0000 </r>
       <r>    -6.0512     0.0000     8.0000 </r>
       <r>    -5.9931     0.0000     8.0000 </r>
       <r>    -5.9350     0.0001     8.0000 </r>
       <r>    -5.8769     0.0004     8.0000 </r>
       <r>    -5.8188     0.0011     8.0001 </r>
       <r>    -5.7606     0.0024     8.0002 </r>
       <r>    -5.7025     0.0049     8.0005 </r>
       <r>    -5.6444     0.0104     8.0011 </r>
       <r>    -5.5863     0.0216     8.0024 </r>
       <r>    -5.5282     0.0455     8.0050 </r>
       <r>    -5.4700     0.0934     8.0105 </r>
       <r>    -5.4119     0.1857     8.0212 </r>
       <r>    -5.3538     0.3490     8.0415 </r>
       <r>    -5.2957     0.5980     8.0763 </r>
       <r>    -5.2376     0.9084     8.1291 </r>
       <r>    -5.1794     1.2162     8.1998 </r>
       <r>    -5.1213     1.4719     8.2853 </r>
       <r>    -5.0632     1.6624     8.3819 </r>
       <r>    -5.0051     1.8084     8.4870 </r>
       <r>    -4.9470     1.9656     8.6013 </r>
       <r>    -4.8888     2.1995     8.7291 </r>
       <r>    -4.8307     2.5055     8.8747 </r>
       <r>    -4.7726     2.8253     9.0389 </r>
       <r>    -4.7145     3.1512     9.2221 </r>
       <r>    -4.6564     3.5394     9.4278 </r>
       <r>    -4.5983     4.0369     9.6625 </r>
       <r>    -4.5401     4.6449     9.9325 </r>
       <r>    -4.4820     5.3557    10.2438 </r>
       <r>    -4.4239     6.1526    10.6014 </r>
       <r>    -4.3658     6.8516    10.9997 </r>
       <r>    -4.3077     7.1795    11.4170 </r>
       <r>    -4.2495     7.0768    11.8284 </r>
       <r>    -4.1914     6.7244    12.2193 </r>
       <r>    -4.1333     6.2783    12.5843 </r>
       <r>    -4.0752     5.7512    12.9186 </r>
       <r>    -4.0171     5.0560    13.2125 </r>
       <r>    -3.9589     4.1767    13.4554 </r>
       <r>    -3.9008     3.2758    13.6459 </r>
       <r>    -3.8427     2.5310    13.7932 </r>
       <r>    -3.7846     2.0253    13.9111 </r>
       <r>    -3.7265     1.7767    14.0147 </r>
       <r>    -3.6683     1.7399    14.1160 </r>
       <r>    -3.6102     1.8567    14.2241 </r>
       <r>    -3.5521     2.1365    14.3485 </r>
       <r>    -3.4940     2.6775    14.5042 </r>
       <r>    -3.4359     3.5809    14.7126 </r>
       <r>    -3.3777     4.8618    14.9953 </r>
       <r>    -3.3196     6.3707    15.3656 </r>
       <r>    -3.2615     7.7704    15.8174 </r>
       <r>    -3.2034     8.5948    16.3169 </r>
       <r>    -3.1453     8.4903    16.8104 </r>
       <r>    -3.0871     7.5303    17.2481 </r>
       <r>    -3.0290     6.2196    17.6096 </r>
       <r>    -2.9709     5.1481    17.9089 </r>
       <r>    -2.9128     4.6688    18.1803 </r>
       <r>    -2.8547     4.8113    18.4599 </r>
       <r>    -2.7965     5.3142    18.7689 </r>
       <r>    -2.7384     5.7728    19.1046 </r>
       <r>    -2.6803     5.9185    19.4487 </r>
       <r>    -2.6222     5.7928    19.7857 </r>
       <r>    -2.5641     5.6270    20.1131 </r>
       <r>    -2.5060     5.5463    20.4358 </r>
       <r>    -2.4478     5.5344    20.7577 </r>
       <r>    -2.3897     5.5949    21.0829 </r>
       <r>    -2.3316     5.7494    21.4171 </r>
       <r>    -2.2735     5.8799    21.7590 </r>
       <r>    -2.2154     5.8218    22.0974 </r>
       <r>    -2.1572     5.5430    22.4198 </r>
       <r>    -2.0991     5.1428    22.7189 </r>
       <r>    -2.0410     4.7419    22.9948 </r>
       <r>    -1.9829     4.3836    23.2496 </r>
       <r>    -1.9248     4.0859    23.4872 </r>
       <r>    -1.8666     3.9305    23.7159 </r>
       <r>    -1.8085     3.9954    23.9482 </r>
       <r>    -1.7504     4.3168    24.1992 </r>
       <r>    -1.6923     4.8880    24.4835 </r>
       <r>    -1.6342     5.7080    24.8155 </r>
       <r>    -1.5760     6.7658    25.2089 </r>
       <r>    -1.5179     7.8817    25.6671 </r>
       <r>    -1.4598     8.6991    26.1728 </r>
       <r>    -1.4017     8.9788    26.6947 </r>
       <r>    -1.3436     8.8220    27.2076 </r>
       <r>    -1.2854     8.5303    27.7035 </r>
       <r>    -1.2273     8.2626    28.1838 </r>
       <r>    -1.1692     7.9109    28.6437 </r>
       <r>    -1.1111     7.3936    29.0735 </r>
       <r>    -1.0530     6.8194    29.4700 </r>
       <r>    -0.9948     6.3467    29.8389 </r>
       <r>    -0.9367     6.0350    30.1898 </r>
       <r>    -0.8786     5.8736    30.5315 </r>
       <r>    -0.8205     5.8717    30.8731 </r>
       <r>    -0.7624     6.0653    31.2259 </r>
       <r>    -0.7042     6.4215    31.5994 </r>
       <r>    -0.6461     6.8077    31.9952 </r>
       <r>    -0.5880     7.0900    32.4077 </r>
       <r>    -0.5299     7.2113    32.8269 </r>
       <r>    -0.4718     7.1841    33.2447 </r>
       <r>    -0.4136     7.0532    33.6548 </r>
       <r>    -0.3555     6.8277    34.0518 </r>
       <r>    -0.2974     6.5153    34.4306 </r>
       <r>    -0.2393     6.1114    34.7860 </r>
       <r>    -0.1812     5.5312    35.1076 </r>
       <r>    -0.1231     4.6986    35.3808 </r>
       <r>    -0.0649     3.6931    35.5956 </r>
       <r>    -0.0068     2.6888    35.7521 </r>
       <r>     0.0513     1.8143    35.8578 </r>
       <r>     0.1094     1.1268    35.9235 </r>
       <r>     0.1675     0.6414    35.9610 </r>
       <r>     0.2257     0.3378    35.9809 </r>
       <r>     0.2838     0.1683    35.9908 </r>
       <r>     0.3419     0.0804    35.9957 </r>
       <r>     0.4000     0.0369    35.9981 </r>
       <r>     0.4581     0.0152    35.9992 </r>
       <r>     0.5163     0.0066    35.9997 </r>
       <r>     0.5744     0.0026    35.9999 </r>
       <r>     0.6325     0.0021    36.0001 </r>
       <r>     0.6906     0.0037    36.0003 </r>
       <r>     0.7487     0.0078    36.0008 </r>
       <r>     0.8069     0.0189    36.0019 </r>
       <r>     0.8650     0.0403    36.0042 </r>
       <r>     0.9231     0.0808    36.0089 </r>
       <r>     0.9812     0.1655    36.0185 </r>
       <r>     1.0393     0.3331    36.0379 </r>
       <r>     1.0975     0.6406    36.0751 </r>
       <r>     1.1556     1.1573    36.1424 </r>
       <r>     1.2137     1.9649    36.2566 </r>
       <r>     1.2718     3.1506    36.4397 </r>
       <r>     1.3299     4.7532    36.7160 </r>
       <r>     1.3881     6.6293    37.1013 </r>
       <r>     1.4462     8.3619    37.5872 </r>
       <r>     1.5043     9.3357    38.1298 </r>
       <r>     1.5624     9.2702    38.6686 </r>
       <r>     1.6205     8.7083    39.1747 </r>
       <r>     1.6787     8.4194    39.6641 </r>
       <r>     1.7368     8.4699    40.1563 </r>
       <r>     1.7949     8.3801    40.6434 </r>
       <r>     1.8530     7.9609    41.1061 </r>
       <r>     1.9111     7.5237    41.5434 </r>
       <r>     1.9693     7.4004    41.9736 </r>
       <r>     2.0274     7.5951    42.4153 </r>
       <r>     2.0855     7.8988    42.8747 </r>
       <r>     2.1436     8.0902    43.3455 </r>
       <r>     2.2017     8.0247    43.8121 </r>
       <r>     2.2598     7.6531    44.2569 </r>
       <r>     2.3180     7.0026    44.6641 </r>
       <r>     2.3761     6.1804    45.0238 </r>
       <r>     2.4342     5.4012    45.3379 </r>
       <r>     2.4923     4.7782    45.6158 </r>
       <r>     2.5504     4.2906    45.8653 </r>
       <r>     2.6086     3.8962    46.0920 </r>
       <r>     2.6667     3.5321    46.2974 </r>
       <r>     2.7248     3.1624    46.4815 </r>
       <r>     2.7829     2.8501    46.6475 </r>
       <r>     2.8410     2.6438    46.8013 </r>
       <r>     2.8992     2.5306    46.9486 </r>
       <r>     2.9573     2.4522    47.0914 </r>
       <r>     3.0154     2.3456    47.2278 </r>
       <r>     3.0735     2.2231    47.3572 </r>
       <r>     3.1316     2.1395    47.4817 </r>
       <r>     3.1898     2.0599    47.6015 </r>
       <r>     3.2479     1.8900    47.7115 </r>
       <r>     3.3060     1.6032    47.8048 </r>
       <r>     3.3641     1.2522    47.8776 </r>
       <r>     3.4222     0.8892    47.9294 </r>
       <r>     3.4804     0.5640    47.9622 </r>
       <r>     3.5385     0.3202    47.9809 </r>
       <r>     3.5966     0.1667    47.9907 </r>
       <r>     3.6547     0.0826    47.9955 </r>
       <r>     3.7128     0.0398    47.9979 </r>
       <r>     3.7710     0.0185    47.9990 </r>
       <r>     3.8291     0.0082    47.9996 </r>
       <r>     3.8872     0.0032    47.9998 </r>
       <r>     3.9453     0.0013    47.9999 </r>
       <r>     4.0034     0.0002    48.0000 </r>
       <r>     4.0616     0.0000    48.0000 </r>
       <r>     4.1197     0.0000    48.0000 </r>
       <r>     4.1778     0.0000    48.0000 </r>
      </set>
     </set>
    </array>
   </total>
  </dos>
 </calculation>
 <structure name="finalpos" >
  <crystal>
   <varray name="basis" >
    <v>       3.55100000       0.00000000       0.00000000 </v>
    <v>       0.00000000       6.14900000       0.00000000 </v>
    <v>       0.00000000       0.00000000      16.00000000 </v>
   </varray>
   <i name="volume">    349.36158400 </i>
   <varray name="rec_basis" >
    <v>       0.28161081       0.00000000       0.00000000 </v>
    <v>       0.00000000       0.16262807       0.00000000 </v>
    <v>       0.00000000       0.00000000       0.06250000 </v>
   </varray>
  </crystal>
  <varray name="positions" >
   <v>       0.00000000       0.66665909       0.11287149 </v>
   <v>       0.00000000       0.66665909       0.88712851 </v>
   <v>       0.50000000       0.16665899       0.11287019 </v>
   <v>       0.50000000       0.16665899       0.88712981 </v>
   <v>       0.50000000       0.50001202       0.00000000 </v>
   <v>       0.00000000       0.00000981       0.00000000 </v>
  </varray>
 </structure>
</modeling>
