2D MoTe2 in a box                       
           1
     3.551000    0.000000    0.000000
     0.000000    6.149000    0.000000
     0.000000    0.000000   16.000000
   Te   Mo
   4   2
Direct configuration=     1
   0.00000000  0.66665962  0.11282875
   0.00000000  0.66665962  0.88717125
   0.50000000  0.16665799  0.11282750
   0.50000000  0.16665799  0.88717250
   0.50000000  0.50001464  0.00000000
   0.00000000  0.00000813  0.00000000
Direct configuration=     2
   0.00000000  0.66665927  0.11285709
   0.00000000  0.66665927  0.88714291
   0.50000000  0.16665866  0.11285581
   0.50000000  0.16665865  0.88714419
   0.50000000  0.50001290  0.00000000
   0.00000000  0.00000924  0.00000000
Direct configuration=     3
   0.00000000  0.66665909  0.11287149
   0.00000000  0.66665909  0.88712851
   0.50000000  0.16665899  0.11287019
   0.50000000  0.16665899  0.88712981
   0.50000000  0.50001202  0.00000000
   0.00000000  0.00000981  0.00000000
