   6   6   0   0
  0.5822693E+02  0.3551000E-09  0.6149000E-09  0.1600000E-08  0.5000000E-15
  1.000000000000000E-004
  CAR 
 2D MoTe2 in a box                       
      4.17778431    -13.25806026  301      0.16145696      1.00000000
    -13.258  0.0000E+00  0.0000E+00
    -13.200  0.0000E+00  0.0000E+00
    -13.142  0.0000E+00  0.0000E+00
    -13.084  0.0000E+00  0.0000E+00
    -13.026  0.0000E+00  0.0000E+00
    -12.967  0.1776E-06  0.1032E-07
    -12.909  0.5539E-06  0.4251E-07
    -12.851  0.1371E-05  0.1222E-06
    -12.793  0.3706E-05  0.3376E-06
    -12.735  0.9495E-05  0.8894E-06
    -12.677  0.2453E-04  0.2315E-05
    -12.619  0.6198E-04  0.5917E-05
    -12.561  0.1479E-03  0.1452E-04
    -12.503  0.3158E-03  0.3287E-04
    -12.444  0.5611E-03  0.6548E-04
    -12.386  0.8046E-03  0.1122E-03
    -12.328  0.9712E-03  0.1687E-03
    -12.270  0.1065E-02  0.2306E-03
    -12.212  0.1107E-02  0.2949E-03
    -12.154  0.1127E-02  0.3605E-03
    -12.096  0.1160E-02  0.4279E-03
    -12.038  0.1180E-02  0.4965E-03
    -11.979  0.1172E-02  0.5647E-03
    -11.921  0.1188E-02  0.6337E-03
    -11.863  0.1244E-02  0.7060E-03
    -11.805  0.1282E-02  0.7806E-03
    -11.747  0.1300E-02  0.8562E-03
    -11.689  0.1375E-02  0.9361E-03
    -11.631  0.1598E-02  0.1029E-02
    -11.573  0.1966E-02  0.1143E-02
    -11.514  0.2331E-02  0.1279E-02
    -11.456  0.2607E-02  0.1430E-02
    -11.398  0.2800E-02  0.1593E-02
    -11.340  0.2967E-02  0.1766E-02
    -11.282  0.3132E-02  0.1948E-02
    -11.224  0.3207E-02  0.2134E-02
    -11.166  0.3235E-02  0.2322E-02
    -11.108  0.3319E-02  0.2515E-02
    -11.050  0.3461E-02  0.2716E-02
    -10.991  0.3650E-02  0.2928E-02
    -10.933  0.3830E-02  0.3151E-02
    -10.875  0.3965E-02  0.3382E-02
    -10.817  0.4154E-02  0.3623E-02
    -10.759  0.4524E-02  0.3886E-02
    -10.701  0.5021E-02  0.4178E-02
    -10.643  0.5476E-02  0.4497E-02
    -10.585  0.5908E-02  0.4840E-02
    -10.526  0.6267E-02  0.5204E-02
    -10.468  0.6339E-02  0.5573E-02
    -10.410  0.6188E-02  0.5933E-02
    -10.352  0.6103E-02  0.6288E-02
    -10.294  0.6046E-02  0.6639E-02
    -10.236  0.5773E-02  0.6975E-02
    -10.178  0.5192E-02  0.7277E-02
    -10.120  0.4338E-02  0.7529E-02
    -10.061  0.3342E-02  0.7724E-02
    -10.003  0.2298E-02  0.7857E-02
     -9.945  0.1336E-02  0.7935E-02
     -9.887  0.6501E-03  0.7973E-02
     -9.829  0.2765E-03  0.7989E-02
     -9.771  0.1094E-03  0.7996E-02
     -9.713  0.4065E-04  0.7999E-02
     -9.655  0.1426E-04  0.7999E-02
     -9.597  0.4230E-05  0.8000E-02
     -9.538  0.5199E-06  0.8000E-02
     -9.480  0.0000E+00  0.8000E-02
     -9.422  0.0000E+00  0.8000E-02
     -9.364  0.0000E+00  0.8000E-02
     -9.306  0.0000E+00  0.8000E-02
     -9.248  0.0000E+00  0.8000E-02
     -9.190  0.0000E+00  0.8000E-02
     -9.132  0.0000E+00  0.8000E-02
     -9.073  0.0000E+00  0.8000E-02
     -9.015  0.0000E+00  0.8000E-02
     -8.957  0.0000E+00  0.8000E-02
     -8.899  0.0000E+00  0.8000E-02
     -8.841  0.0000E+00  0.8000E-02
     -8.783  0.0000E+00  0.8000E-02
     -8.725  0.0000E+00  0.8000E-02
     -8.667  0.0000E+00  0.8000E-02
     -8.609  0.0000E+00  0.8000E-02
     -8.550  0.0000E+00  0.8000E-02
     -8.492  0.0000E+00  0.8000E-02
     -8.434  0.0000E+00  0.8000E-02
     -8.376  0.0000E+00  0.8000E-02
     -8.318  0.0000E+00  0.8000E-02
     -8.260  0.0000E+00  0.8000E-02
     -8.202  0.0000E+00  0.8000E-02
     -8.144  0.0000E+00  0.8000E-02
     -8.085  0.0000E+00  0.8000E-02
     -8.027  0.0000E+00  0.8000E-02
     -7.969  0.0000E+00  0.8000E-02
     -7.911  0.0000E+00  0.8000E-02
     -7.853  0.0000E+00  0.8000E-02
     -7.795  0.0000E+00  0.8000E-02
     -7.737  0.0000E+00  0.8000E-02
     -7.679  0.0000E+00  0.8000E-02
     -7.620  0.0000E+00  0.8000E-02
     -7.562  0.0000E+00  0.8000E-02
     -7.504  0.0000E+00  0.8000E-02
     -7.446  0.0000E+00  0.8000E-02
     -7.388  0.0000E+00  0.8000E-02
     -7.330  0.0000E+00  0.8000E-02
     -7.272  0.0000E+00  0.8000E-02
     -7.214  0.0000E+00  0.8000E-02
     -7.156  0.0000E+00  0.8000E-02
     -7.097  0.0000E+00  0.8000E-02
     -7.039  0.0000E+00  0.8000E-02
     -6.981  0.0000E+00  0.8000E-02
     -6.923  0.0000E+00  0.8000E-02
     -6.865  0.0000E+00  0.8000E-02
     -6.807  0.0000E+00  0.8000E-02
     -6.749  0.0000E+00  0.8000E-02
     -6.691  0.0000E+00  0.8000E-02
     -6.632  0.0000E+00  0.8000E-02
     -6.574  0.0000E+00  0.8000E-02
     -6.516  0.0000E+00  0.8000E-02
     -6.458  0.0000E+00  0.8000E-02
     -6.400  0.0000E+00  0.8000E-02
     -6.342  0.0000E+00  0.8000E-02
     -6.284  0.0000E+00  0.8000E-02
     -6.226  0.0000E+00  0.8000E-02
     -6.167  0.0000E+00  0.8000E-02
     -6.109  0.0000E+00  0.8000E-02
     -6.051  0.0000E+00  0.8000E-02
     -5.993  0.0000E+00  0.8000E-02
     -5.935  0.0000E+00  0.8000E-02
     -5.877  0.0000E+00  0.8000E-02
     -5.819  0.0000E+00  0.8000E-02
     -5.761  0.3723E-06  0.8000E-02
     -5.703  0.9470E-06  0.8000E-02
     -5.644  0.2400E-05  0.8000E-02
     -5.586  0.6412E-05  0.8001E-02
     -5.528  0.1667E-04  0.8002E-02
     -5.470  0.4302E-04  0.8004E-02
     -5.412  0.1077E-03  0.8010E-02
     -5.354  0.2549E-03  0.8025E-02
     -5.296  0.5309E-03  0.8056E-02
     -5.238  0.9106E-03  0.8109E-02
     -5.179  0.1272E-02  0.8183E-02
     -5.121  0.1540E-02  0.8272E-02
     -5.063  0.1711E-02  0.8372E-02
     -5.005  0.1795E-02  0.8476E-02
     -4.947  0.1882E-02  0.8586E-02
     -4.889  0.2117E-02  0.8709E-02
     -4.831  0.2490E-02  0.8853E-02
     -4.773  0.2815E-02  0.9017E-02
     -4.714  0.3078E-02  0.9196E-02
     -4.656  0.3413E-02  0.9394E-02
     -4.598  0.3921E-02  0.9622E-02
     -4.540  0.4543E-02  0.9886E-02
     -4.482  0.5267E-02  0.1019E-01
     -4.424  0.6259E-02  0.1056E-01
     -4.366  0.7267E-02  0.1098E-01
     -4.308  0.7657E-02  0.1142E-01
     -4.250  0.7353E-02  0.1185E-01
     -4.191  0.6842E-02  0.1225E-01
     -4.133  0.6378E-02  0.1262E-01
     -4.075  0.5937E-02  0.1296E-01
     -4.017  0.5259E-02  0.1327E-01
     -3.959  0.4194E-02  0.1351E-01
     -3.901  0.3096E-02  0.1369E-01
     -3.843  0.2263E-02  0.1383E-01
     -3.785  0.1735E-02  0.1393E-01
     -3.726  0.1532E-02  0.1402E-01
     -3.668  0.1560E-02  0.1411E-01
     -3.610  0.1661E-02  0.1420E-01
     -3.552  0.1843E-02  0.1431E-01
     -3.494  0.2277E-02  0.1444E-01
     -3.436  0.3180E-02  0.1463E-01
     -3.378  0.4632E-02  0.1490E-01
     -3.320  0.6501E-02  0.1528E-01
     -3.262  0.8405E-02  0.1577E-01
     -3.203  0.9610E-02  0.1632E-01
     -3.145  0.9420E-02  0.1687E-01
     -3.087  0.7912E-02  0.1733E-01
     -3.029  0.5966E-02  0.1768E-01
     -2.971  0.4517E-02  0.1794E-01
     -2.913  0.4002E-02  0.1817E-01
     -2.855  0.4410E-02  0.1843E-01
     -2.797  0.5349E-02  0.1874E-01
     -2.738  0.6102E-02  0.1910E-01
     -2.680  0.6201E-02  0.1946E-01
     -2.622  0.5829E-02  0.1980E-01
     -2.564  0.5537E-02  0.2012E-01
     -2.506  0.5490E-02  0.2044E-01
     -2.448  0.5466E-02  0.2075E-01
     -2.390  0.5493E-02  0.2107E-01
     -2.332  0.5775E-02  0.2141E-01
     -2.273  0.6089E-02  0.2176E-01
     -2.215  0.6058E-02  0.2212E-01
     -2.157  0.5674E-02  0.2245E-01
     -2.099  0.5143E-02  0.2275E-01
     -2.041  0.4695E-02  0.2302E-01
     -1.983  0.4312E-02  0.2327E-01
     -1.925  0.3924E-02  0.2350E-01
     -1.867  0.3680E-02  0.2371E-01
     -1.809  0.3705E-02  0.2393E-01
     -1.750  0.4035E-02  0.2416E-01
     -1.692  0.4620E-02  0.2443E-01
     -1.634  0.5454E-02  0.2475E-01
     -1.576  0.6699E-02  0.2514E-01
     -1.518  0.8210E-02  0.2561E-01
     -1.460  0.9289E-02  0.2615E-01
     -1.402  0.9463E-02  0.2670E-01
     -1.344  0.8983E-02  0.2723E-01
     -1.285  0.8511E-02  0.2772E-01
     -1.227  0.8365E-02  0.2821E-01
     -1.169  0.8099E-02  0.2868E-01
     -1.111  0.7447E-02  0.2911E-01
     -1.053  0.6702E-02  0.2950E-01
     -0.995  0.6161E-02  0.2986E-01
     -0.937  0.5865E-02  0.3020E-01
     -0.879  0.5696E-02  0.3053E-01
     -0.820  0.5652E-02  0.3086E-01
     -0.762  0.5890E-02  0.3120E-01
     -0.704  0.6389E-02  0.3158E-01
     -0.646  0.6920E-02  0.3198E-01
     -0.588  0.7275E-02  0.3240E-01
     -0.530  0.7377E-02  0.3283E-01
     -0.472  0.7305E-02  0.3325E-01
     -0.414  0.7167E-02  0.3367E-01
     -0.356  0.6938E-02  0.3407E-01
     -0.297  0.6620E-02  0.3446E-01
     -0.239  0.6307E-02  0.3483E-01
     -0.181  0.5810E-02  0.3516E-01
     -0.123  0.4884E-02  0.3545E-01
     -0.065  0.3683E-02  0.3566E-01
     -0.007  0.2544E-02  0.3581E-01
      0.051  0.1608E-02  0.3590E-01
      0.109  0.8999E-03  0.3596E-01
      0.168  0.4349E-03  0.3598E-01
      0.226  0.1858E-03  0.3599E-01
      0.284  0.7238E-04  0.3600E-01
      0.342  0.2598E-04  0.3600E-01
      0.400  0.9091E-05  0.3600E-01
      0.458  0.2308E-05  0.3600E-01
      0.516  0.5531E-06  0.3600E-01
      0.574  0.0000E+00  0.3600E-01
      0.632  0.1316E-06  0.3600E-01
      0.691  0.3934E-06  0.3600E-01
      0.749  0.1166E-05  0.3600E-01
      0.807  0.3361E-05  0.3600E-01
      0.865  0.1006E-04  0.3600E-01
      0.923  0.2607E-04  0.3600E-01
      0.981  0.6987E-04  0.3601E-01
      1.039  0.1705E-03  0.3602E-01
      1.097  0.3965E-03  0.3604E-01
      1.156  0.8307E-03  0.3609E-01
      1.214  0.1555E-02  0.3618E-01
      1.272  0.2711E-02  0.3634E-01
      1.330  0.4474E-02  0.3660E-01
      1.388  0.6792E-02  0.3699E-01
      1.446  0.9179E-02  0.3752E-01
      1.504  0.1048E-01  0.3813E-01
      1.562  0.9827E-02  0.3870E-01
      1.621  0.8410E-02  0.3919E-01
      1.679  0.8063E-02  0.3966E-01
      1.737  0.8647E-02  0.4016E-01
      1.795  0.8737E-02  0.4067E-01
      1.853  0.7962E-02  0.4114E-01
      1.911  0.7172E-02  0.4155E-01
      1.969  0.7053E-02  0.4196E-01
      2.027  0.7480E-02  0.4240E-01
      2.085  0.8017E-02  0.4286E-01
      2.144  0.8381E-02  0.4335E-01
      2.202  0.8358E-02  0.4384E-01
      2.260  0.7948E-02  0.4430E-01
      2.318  0.7194E-02  0.4472E-01
      2.376  0.6140E-02  0.4508E-01
      2.434  0.5231E-02  0.4538E-01
      2.492  0.4640E-02  0.4565E-01
      2.550  0.4178E-02  0.4589E-01
      2.609  0.3856E-02  0.4612E-01
      2.667  0.3533E-02  0.4632E-01
      2.725  0.3092E-02  0.4650E-01
      2.783  0.2732E-02  0.4666E-01
      2.841  0.2543E-02  0.4681E-01
      2.899  0.2488E-02  0.4695E-01
      2.957  0.2486E-02  0.4710E-01
      3.015  0.2364E-02  0.4724E-01
      3.074  0.2180E-02  0.4736E-01
      3.132  0.2135E-02  0.4749E-01
      3.190  0.2161E-02  0.4761E-01
      3.248  0.2021E-02  0.4773E-01
      3.306  0.1669E-02  0.4783E-01
      3.364  0.1265E-02  0.4790E-01
      3.422  0.8508E-03  0.4795E-01
      3.480  0.4728E-03  0.4798E-01
      3.538  0.2200E-03  0.4799E-01
      3.597  0.9140E-04  0.4800E-01
      3.655  0.3538E-04  0.4800E-01
      3.713  0.1193E-04  0.4800E-01
      3.771  0.4530E-05  0.4800E-01
      3.829  0.1080E-05  0.4800E-01
      3.887  0.0000E+00  0.4800E-01
      3.945  0.0000E+00  0.4800E-01
      4.003  0.0000E+00  0.4800E-01
      4.062  0.0000E+00  0.4800E-01
      4.120  0.0000E+00  0.4800E-01
      4.178  0.0000E+00  0.4800E-01
