    6    6 1000    1
  0.5822693E+02  0.3551000E-09  0.6149000E-09  0.1600000E-08  0.5000000E-15
  1.000000000000000E-004
  CAR 
 2D MoTe2 in a box                       
     36    162     24
 
  0.2777778E-01  0.2777778E-01  0.1262379E-14  0.6172840E-02
    1      -12.465522
    2      -11.567537
    3      -10.565476
    4      -10.234010
    5       -5.260223
    6       -4.824627
    7       -4.426248
    8       -3.219737
    9       -2.222131
   10       -1.643034
   11       -1.608282
   12       -1.574648
   13       -1.528688
   14       -0.826737
   15       -0.796823
   16       -0.729148
   17       -0.389577
   18       -0.221775
   19        1.452972
   20        1.780175
   21        3.103292
   22        3.166554
   23        3.337534
   24        3.364373
 
  0.8333333E-01  0.2777778E-01  0.1262379E-14  0.6172840E-02
    1      -12.404051
    2      -11.522673
    3      -10.534689
    4      -10.209308
    5       -5.185824
    6       -4.756223
    7       -4.408722
    8       -3.196639
    9       -2.330820
   10       -1.772279
   11       -1.747696
   12       -1.522776
   13       -1.512242
   14       -1.121778
   15       -0.915909
   16       -0.722743
   17       -0.395429
   18       -0.177895
   19        1.479223
   20        1.817642
   21        2.832920
   22        2.971494
   23        3.184572
   24        3.218936
 
  0.1388889E+00  0.2777778E-01  0.1262379E-14  0.6172840E-02
    1      -12.282952
    2      -11.434409
    3      -10.477917
    4      -10.164077
    5       -5.039663
    6       -4.624271
    7       -4.381794
    8       -3.161174
    9       -2.499056
   10       -2.006687
   11       -1.970442
   12       -1.701161
   13       -1.507787
   14       -1.426398
   15       -1.109808
   16       -0.636369
   17       -0.419062
   18       -0.146389
   19        1.461932
   20        1.939722
   21        2.467462
   22        2.489959
   23        2.698853
   24        2.980073
 
  0.1944444E+00  0.2777778E-01  0.1262379E-14  0.6172840E-02
    1      -12.106093
    2      -11.305887
    3      -10.405258
    4      -10.106912
    5       -4.828021
    6       -4.439832
    7       -4.360698
    8       -3.145559
    9       -2.669388
   10       -2.352744
   11       -2.311896
   12       -2.195146
   13       -1.532356
   14       -1.419029
   15       -1.305053
   16       -0.586324
   17       -0.476548
   18       -0.099916
   19        1.376903
   20        2.048236
   21        2.141463
   22        2.172866
   23        2.308043
   24        2.624167
 
  0.2500000E+00  0.2777778E-01  0.1262379E-14  0.6172840E-02
    1      -11.879864
    2      -11.142197
    3      -10.332920
    4      -10.051073
    5       -4.565830
    6       -4.360424
    7       -4.224851
    8       -3.278216
    9       -2.793345
   10       -2.741295
   11       -2.738364
   12       -2.435053
   13       -1.816028
   14       -1.579768
   15       -1.216451
   16       -0.598028
   17       -0.552313
   18       -0.026501
   19        1.258478
   20        1.710447
   21        2.023941
   22        2.061980
   23        2.257152
   24        2.362992
 
  0.3055556E+00  0.2777778E-01  0.1262379E-14  0.6172840E-02
    1      -11.613832
    2      -10.950931
    3      -10.283481
    4      -10.013865
    5       -4.377298
    6       -4.311574
    7       -4.031854
    8       -3.603392
    9       -3.100500
   10       -2.848139
   11       -2.831287
   12       -2.719770
   13       -2.208643
   14       -1.622606
   15       -1.285482
   16       -0.679114
   17       -0.552137
   18        0.044367
   19        1.162087
   20        1.470688
   21        1.954904
   22        1.974493
   23        2.010515
   24        2.525754
 
  0.3611111E+00  0.2777778E-01  0.1262379E-14  0.6172840E-02
    1      -11.321986
    2      -10.742903
    3      -10.283690
    4      -10.014082
    5       -4.377072
    6       -4.311308
    7       -4.006407
    8       -3.603533
    9       -3.271009
   10       -3.097966
   11       -2.847952
   12       -2.831264
   13       -2.481370
   14       -1.622778
   15       -1.545361
   16       -0.822432
   17       -0.462622
   18        0.044509
   19        1.161833
   20        1.331262
   21        1.821803
   22        1.954960
   23        2.074905
   24        2.525375
 
  0.4166667E+00  0.2777778E-01  0.1262379E-14  0.6172840E-02
    1      -11.023833
    2      -10.532445
    3      -10.357335
    4      -10.066652
    5       -4.472146
    6       -4.312211
    7       -4.205656
    8       -3.511989
    9       -3.274662
   10       -3.186824
   11       -2.822987
   12       -2.822868
   13       -2.638935
   14       -1.909844
   15       -1.551484
   16       -1.009977
   17       -0.375297
   18       -0.052271
   19        1.277053
   20        1.354372
   21        1.745757
   22        2.019538
   23        2.143093
   24        2.312086
 
  0.4722222E+00  0.2777778E-01  0.1262379E-14  0.6172840E-02
    1      -10.744929
    2      -10.514427
    3      -10.337339
    4      -10.176761
    5       -4.517519
    6       -4.415267
    7       -4.148587
    8       -3.876680
    9       -3.055397
   10       -3.013324
   11       -2.786863
   12       -2.731677
   13       -2.704409
   14       -2.321219
   15       -1.407615
   16       -1.215739
   17       -0.295860
   18       -0.186027
   19        1.430148
   20        1.487558
   21        1.735026
   22        1.983697
   23        2.102184
   24        2.155282
 
 -0.4722222E+00  0.2777778E-01  0.1262379E-14  0.6172840E-02
    1      -10.744929
    2      -10.514427
    3      -10.337339
    4      -10.176761
    5       -4.517519
    6       -4.415267
    7       -4.148587
    8       -3.876680
    9       -3.055397
   10       -3.013324
   11       -2.786863
   12       -2.731677
   13       -2.704409
   14       -2.321219
   15       -1.407615
   16       -1.215739
   17       -0.295860
   18       -0.186027
   19        1.430148
   20        1.487558
   21        1.735026
   22        1.983697
   23        2.102184
   24        2.155282
 
 -0.4166667E+00  0.2777778E-01  0.1262379E-14  0.6172840E-02
    1      -11.023833
    2      -10.532445
    3      -10.357335
    4      -10.066652
    5       -4.472146
    6       -4.312211
    7       -4.205656
    8       -3.511989
    9       -3.274662
   10       -3.186824
   11       -2.822987
   12       -2.822868
   13       -2.638935
   14       -1.909844
   15       -1.551484
   16       -1.009977
   17       -0.375297
   18       -0.052271
   19        1.277053
   20        1.354372
   21        1.745757
   22        2.019538
   23        2.143093
   24        2.312086
 
 -0.3611111E+00  0.2777778E-01  0.1262379E-14  0.6172840E-02
    1      -11.321986
    2      -10.742903
    3      -10.283690
    4      -10.014082
    5       -4.377072
    6       -4.311308
    7       -4.006407
    8       -3.603533
    9       -3.271009
   10       -3.097966
   11       -2.847952
   12       -2.831264
   13       -2.481370
   14       -1.622778
   15       -1.545361
   16       -0.822432
   17       -0.462622
   18        0.044509
   19        1.161833
   20        1.331262
   21        1.821803
   22        1.954960
   23        2.074905
   24        2.525375
 
 -0.3055556E+00  0.2777778E-01  0.1262379E-14  0.6172840E-02
    1      -11.613832
    2      -10.950931
    3      -10.283481
    4      -10.013865
    5       -4.377298
    6       -4.311574
    7       -4.031854
    8       -3.603392
    9       -3.100500
   10       -2.848139
   11       -2.831287
   12       -2.719770
   13       -2.208643
   14       -1.622606
   15       -1.285482
   16       -0.679114
   17       -0.552137
   18        0.044367
   19        1.162087
   20        1.470688
   21        1.954904
   22        1.974493
   23        2.010515
   24        2.525754
 
 -0.2500000E+00  0.2777778E-01  0.1262379E-14  0.6172840E-02
    1      -11.879864
    2      -11.142197
    3      -10.332920
    4      -10.051073
    5       -4.565830
    6       -4.360424
    7       -4.224851
    8       -3.278216
    9       -2.793345
   10       -2.741295
   11       -2.738364
   12       -2.435053
   13       -1.816028
   14       -1.579768
   15       -1.216451
   16       -0.598028
   17       -0.552313
   18       -0.026501
   19        1.258478
   20        1.710447
   21        2.023941
   22        2.061980
   23        2.257152
   24        2.362992
 
 -0.1944444E+00  0.2777778E-01  0.1262379E-14  0.6172840E-02
    1      -12.106093
    2      -11.305887
    3      -10.405258
    4      -10.106912
    5       -4.828021
    6       -4.439832
    7       -4.360698
    8       -3.145559
    9       -2.669388
   10       -2.352744
   11       -2.311896
   12       -2.195146
   13       -1.532356
   14       -1.419029
   15       -1.305053
   16       -0.586324
   17       -0.476548
   18       -0.099916
   19        1.376903
   20        2.048236
   21        2.141463
   22        2.172866
   23        2.308043
   24        2.624167
 
 -0.1388889E+00  0.2777778E-01  0.1262379E-14  0.6172840E-02
    1      -12.282952
    2      -11.434409
    3      -10.477917
    4      -10.164077
    5       -5.039663
    6       -4.624271
    7       -4.381794
    8       -3.161174
    9       -2.499056
   10       -2.006687
   11       -1.970442
   12       -1.701161
   13       -1.507787
   14       -1.426398
   15       -1.109808
   16       -0.636369
   17       -0.419062
   18       -0.146389
   19        1.461932
   20        1.939722
   21        2.467462
   22        2.489959
   23        2.698853
   24        2.980073
 
 -0.8333333E-01  0.2777778E-01  0.1262379E-14  0.6172840E-02
    1      -12.404051
    2      -11.522673
    3      -10.534689
    4      -10.209308
    5       -5.185824
    6       -4.756223
    7       -4.408722
    8       -3.196639
    9       -2.330820
   10       -1.772279
   11       -1.747696
   12       -1.522776
   13       -1.512242
   14       -1.121778
   15       -0.915909
   16       -0.722743
   17       -0.395429
   18       -0.177895
   19        1.479223
   20        1.817642
   21        2.832920
   22        2.971494
   23        3.215650
   24        3.242132
 
 -0.2777778E-01  0.2777778E-01  0.1262379E-14  0.6172840E-02
    1      -12.465522
    2      -11.567537
    3      -10.565476
    4      -10.234010
    5       -5.260223
    6       -4.824627
    7       -4.426248
    8       -3.219737
    9       -2.222131
   10       -1.643034
   11       -1.608282
   12       -1.574648
   13       -1.528688
   14       -0.826737
   15       -0.796823
   16       -0.729148
   17       -0.389577
   18       -0.221775
   19        1.452972
   20        1.780175
   21        3.103292
   22        3.166554
   23        3.337478
   24        3.372300
 
  0.2777778E-01  0.8333333E-01  0.1262379E-14  0.6172840E-02
    1      -12.444954
    2      -11.552515
    3      -10.610455
    4      -10.263154
    5       -5.192330
    6       -4.801636
    7       -4.369349
    8       -3.227248
    9       -2.207189
   10       -1.689431
   11       -1.654367
   12       -1.558336
   13       -1.518483
   14       -0.857502
   15       -0.766986
   16       -0.759396
   17       -0.391006
   18       -0.245626
   19        1.470244
   20        1.752592
   21        3.005150
   22        3.183726
   23        3.201351
   24        3.311331
 
  0.8333333E-01  0.8333333E-01  0.1262379E-14  0.6172840E-02
    1      -12.383684
    2      -11.507811
    3      -10.578451
    4      -10.237841
    5       -5.121339
    6       -4.733768
    7       -4.352750
    8       -3.201901
    9       -2.324428
   10       -1.810926
   11       -1.793052
   12       -1.505531
   13       -1.492335
   14       -1.140045
   15       -0.936691
   16       -0.713431
   17       -0.398335
   18       -0.201462
   19        1.491232
   20        1.781656
   21        2.759773
   22        2.868455
   23        3.128849
   24        3.212803
 
  0.1388889E+00  0.8333333E-01  0.1262379E-14  0.6172840E-02
    1      -12.263009
    2      -11.419900
    3      -10.519179
    4      -10.191317
    5       -4.983207
    6       -4.603094
    7       -4.328412
    8       -3.160574
    9       -2.500805
   10       -2.051429
   11       -2.006898
   12       -1.706355
   13       -1.478333
   14       -1.406967
   15       -1.104690
   16       -0.663177
   17       -0.425249
   18       -0.171889
   19        1.480168
   20        1.884847
   21        2.413457
   22        2.433325
   23        2.675771
   24        2.966822
 
  0.1944444E+00  0.8333333E-01  0.1262379E-14  0.6172840E-02
    1      -12.086856
    2      -11.291963
    3      -10.442612
    4      -10.132022
    5       -4.787756
    6       -4.421157
    7       -4.313111
    8       -3.129610
    9       -2.674107
   10       -2.397745
   11       -2.309466
   12       -2.239244
   13       -1.498678
   14       -1.386426
   15       -1.280485
   16       -0.645116
   17       -0.488081
   18       -0.130124
   19        1.405637
   20        1.996687
   21        2.070252
   22        2.181895
   23        2.300601
   24        2.633088
 
  0.2500000E+00  0.8333333E-01  0.1262379E-14  0.6172840E-02
    1      -11.861678
    2      -11.129164
    3      -10.364834
    4      -10.073064
    5       -4.560190
    6       -4.323487
    7       -4.211200
    8       -3.215708
    9       -2.794462
   10       -2.787116
   11       -2.745431
   12       -2.497348
   13       -1.756908
   14       -1.548052
   15       -1.181161
   16       -0.672638
   17       -0.570090
   18       -0.062078
   19        1.297073
   20        1.686765
   21        2.068948
   22        2.069566
   23        2.274841
   24        2.282714
 
  0.3055556E+00  0.8333333E-01  0.1262379E-14  0.6172840E-02
    1      -11.597203
    2      -10.939234
    3      -10.308409
    4      -10.031665
    5       -4.383788
    6       -4.355358
    7       -4.030719
    8       -3.470128
    9       -3.143520
   10       -2.840306
   11       -2.832490
   12       -2.802221
   13       -2.127200
   14       -1.597792
   15       -1.237133
   16       -0.751700
   17       -0.568159
   18        0.007720
   19        1.205237
   20        1.475735
   21        1.976563
   22        1.984106
   23        2.078540
   24        2.448373
 
  0.3611111E+00  0.8333333E-01  0.1262379E-14  0.6172840E-02
    1      -11.307620
    2      -10.733151
    3      -10.300395
    4      -10.026742
    5       -4.424849
    6       -4.371679
    7       -4.035866
    8       -3.456473
    9       -3.297460
   10       -3.175281
   11       -2.829232
   12       -2.809331
   13       -2.403924
   14       -1.608002
   15       -1.478908
   16       -0.881468
   17       -0.468697
   18        0.018215
   19        1.197095
   20        1.350690
   21        1.820656
   22        1.991019
   23        2.152407
   24        2.468138
 
  0.4166667E+00  0.8333333E-01  0.1262379E-14  0.6172840E-02
    1      -11.012782
    2      -10.525443
    3      -10.365410
    4      -10.073664
    5       -4.559772
    6       -4.322917
    7       -4.258040
    8       -3.570426
    9       -3.215991
   10       -3.209636
   11       -2.793895
   12       -2.745192
   13       -2.577934
   14       -1.814143
   15       -1.548517
   16       -1.051482
   17       -0.372724
   18       -0.061713
   19        1.296488
   20        1.369278
   21        1.741878
   22        2.069172
   23        2.221571
   24        2.281854
 
  0.4722222E+00  0.8333333E-01  0.1262379E-14  0.6172840E-02
    1      -10.738609
    2      -10.514546
    3      -10.334081
    4      -10.178255
    5       -4.590318
    6       -4.478571
    7       -4.174570
    8       -3.918028
    9       -3.093362
   10       -3.062918
   11       -2.748639
   12       -2.683650
   13       -2.541049
   14       -2.188376
   15       -1.417575
   16       -1.240391
   17       -0.290033
   18       -0.183906
   19        1.437600
   20        1.492481
   21        1.732602
   22        1.972511
   23        2.164457
   24        2.228027
 
 -0.4722222E+00  0.8333333E-01  0.1262379E-14  0.6172840E-02
    1      -10.738609
    2      -10.514546
    3      -10.334081
    4      -10.178255
    5       -4.590318
    6       -4.478571
    7       -4.174570
    8       -3.918028
    9       -3.093362
   10       -3.062918
   11       -2.748639
   12       -2.683650
   13       -2.541049
   14       -2.188376
   15       -1.417575
   16       -1.240391
   17       -0.290033
   18       -0.183906
   19        1.437600
   20        1.492481
   21        1.732602
   22        1.972511
   23        2.164457
   24        2.228027
 
 -0.4166667E+00  0.8333333E-01  0.1262379E-14  0.6172840E-02
    1      -11.012782
    2      -10.525443
    3      -10.365410
    4      -10.073664
    5       -4.559772
    6       -4.322917
    7       -4.258040
    8       -3.570426
    9       -3.215991
   10       -3.209636
   11       -2.793895
   12       -2.745192
   13       -2.577934
   14       -1.814143
   15       -1.548517
   16       -1.051482
   17       -0.372724
   18       -0.061713
   19        1.296488
   20        1.369278
   21        1.741878
   22        2.069172
   23        2.221571
   24        2.281854
 
 -0.3611111E+00  0.8333333E-01  0.1262379E-14  0.6172840E-02
    1      -11.307620
    2      -10.733151
    3      -10.300395
    4      -10.026742
    5       -4.424849
    6       -4.371679
    7       -4.035866
    8       -3.456473
    9       -3.297460
   10       -3.175281
   11       -2.829232
   12       -2.809331
   13       -2.403924
   14       -1.608002
   15       -1.478908
   16       -0.881468
   17       -0.468697
   18        0.018215
   19        1.197095
   20        1.350690
   21        1.820656
   22        1.991019
   23        2.152407
   24        2.468138
 
 -0.3055556E+00  0.8333333E-01  0.1262379E-14  0.6172840E-02
    1      -11.597203
    2      -10.939234
    3      -10.308409
    4      -10.031665
    5       -4.383788
    6       -4.355358
    7       -4.030719
    8       -3.470128
    9       -3.143520
   10       -2.840306
   11       -2.832490
   12       -2.802221
   13       -2.127200
   14       -1.597792
   15       -1.237133
   16       -0.751700
   17       -0.568159
   18        0.007720
   19        1.205237
   20        1.475735
   21        1.976563
   22        1.984106
   23        2.078540
   24        2.448373
 
 -0.2500000E+00  0.8333333E-01  0.1262379E-14  0.6172840E-02
    1      -11.861678
    2      -11.129164
    3      -10.364834
    4      -10.073064
    5       -4.560190
    6       -4.323487
    7       -4.211200
    8       -3.215708
    9       -2.794462
   10       -2.787116
   11       -2.745431
   12       -2.497348
   13       -1.756908
   14       -1.548052
   15       -1.181161
   16       -0.672638
   17       -0.570090
   18       -0.062078
   19        1.297073
   20        1.686765
   21        2.068948
   22        2.069566
   23        2.274841
   24        2.282714
 
 -0.1944444E+00  0.8333333E-01  0.1262379E-14  0.6172840E-02
    1      -12.086856
    2      -11.291963
    3      -10.442612
    4      -10.132022
    5       -4.787756
    6       -4.421157
    7       -4.313111
    8       -3.129610
    9       -2.674107
   10       -2.397745
   11       -2.309466
   12       -2.239244
   13       -1.498678
   14       -1.386426
   15       -1.280485
   16       -0.645116
   17       -0.488081
   18       -0.130124
   19        1.405637
   20        1.996687
   21        2.070252
   22        2.181895
   23        2.300601
   24        2.633088
 
 -0.1388889E+00  0.8333333E-01  0.1262379E-14  0.6172840E-02
    1      -12.263009
    2      -11.419900
    3      -10.519179
    4      -10.191317
    5       -4.983207
    6       -4.603094
    7       -4.328412
    8       -3.160574
    9       -2.500805
   10       -2.051429
   11       -2.006898
   12       -1.706355
   13       -1.478333
   14       -1.406967
   15       -1.104690
   16       -0.663177
   17       -0.425249
   18       -0.171889
   19        1.480168
   20        1.884847
   21        2.413457
   22        2.433325
   23        2.675771
   24        2.966822
 
 -0.8333333E-01  0.8333333E-01  0.1262379E-14  0.6172840E-02
    1      -12.383684
    2      -11.507811
    3      -10.578451
    4      -10.237841
    5       -5.121339
    6       -4.733768
    7       -4.352750
    8       -3.201901
    9       -2.324428
   10       -1.810926
   11       -1.793052
   12       -1.505531
   13       -1.492334
   14       -1.140045
   15       -0.936691
   16       -0.713431
   17       -0.398335
   18       -0.201462
   19        1.491232
   20        1.781656
   21        2.759773
   22        2.868455
   23        3.128824
   24        3.223479
 
 -0.2777778E-01  0.8333333E-01  0.1262379E-14  0.6172840E-02
    1      -12.444954
    2      -11.552515
    3      -10.610455
    4      -10.263154
    5       -5.192330
    6       -4.801636
    7       -4.369349
    8       -3.227248
    9       -2.207189
   10       -1.689431
   11       -1.654367
   12       -1.558336
   13       -1.518483
   14       -0.857502
   15       -0.766986
   16       -0.759396
   17       -0.391006
   18       -0.245626
   19        1.470244
   20        1.752592
   21        3.005150
   22        3.183726
   23        3.201351
   24        3.309498
 
  0.2777778E-01  0.1388889E+00  0.1262379E-14  0.6172840E-02
    1      -12.404012
    2      -11.522630
    3      -10.696032
    4      -10.319130
    5       -5.062255
    6       -4.756188
    7       -4.258801
    8       -3.244153
    9       -2.177542
   10       -1.772058
   11       -1.746164
   12       -1.524420
   13       -1.497443
   14       -0.917068
   15       -0.810893
   16       -0.721796
   17       -0.395356
   18       -0.291522
   19        1.503996
   20        1.707385
   21        2.833757
   22        2.973165
   23        3.217248
   24        3.223428
 
  0.8333333E-01  0.1388889E+00  0.1262379E-14  0.6172840E-02
    1      -12.343158
    2      -11.478251
    3      -10.661825
    4      -10.292667
    5       -4.997884
    6       -4.689405
    7       -4.243853
    8       -3.214660
    9       -2.311301
   10       -1.880513
   11       -1.880095
   12       -1.473113
   13       -1.452754
   14       -1.171329
   15       -1.000759
   16       -0.681375
   17       -0.405440
   18       -0.243806
   19        1.507273
   20        1.728970
   21        2.629110
   22        2.698048
   23        3.032147
   24        3.120740
 
  0.1388889E+00  0.1388889E+00  0.1262379E-14  0.6172840E-02
    1      -12.223332
    2      -11.391045
    3      -10.598007
    4      -10.243707
    5       -4.875401
    6       -4.561282
    7       -4.224314
    8       -3.162703
    9       -2.502640
   10       -2.135885
   11       -2.070674
   12       -1.712634
   13       -1.421393
   14       -1.372311
   15       -1.128958
   16       -0.689066
   17       -0.438337
   18       -0.215298
   19        1.505119
   20        1.799111
   21        2.289925
   22        2.368202
   23        2.629351
   24        2.911677
 
  0.1944444E+00  0.1388889E+00  0.1262379E-14  0.6172840E-02
    1      -12.048597
    2      -11.264280
    3      -10.514287
    4      -10.180427
    5       -4.711205
    6       -4.384410
    7       -4.220306
    8       -3.105281
    9       -2.681028
   10       -2.481381
   11       -2.313385
   12       -2.297662
   13       -1.434641
   14       -1.349947
   15       -1.237337
   16       -0.739921
   17       -0.510800
   18       -0.180530
   19        1.451391
   20        1.915401
   21        1.951856
   22        2.191308
   23        2.285122
   24        2.621898
 
  0.2500000E+00  0.1388889E+00  0.1262379E-14  0.6172840E-02
    1      -11.825535
    2      -11.103279
    3      -10.426456
    4      -10.115619
    5       -4.545713
    6       -4.251782
    7       -4.184914
    8       -3.108402
    9       -2.870546
   10       -2.793976
   11       -2.749065
   12       -2.594798
   13       -1.672410
   14       -1.488321
   15       -1.117542
   16       -0.802099
   17       -0.605061
   18       -0.120866
   19        1.360880
   20        1.650147
   21        2.082512
   22        2.143040
   23        2.145958
   24        2.290236
 
  0.3055556E+00  0.1388889E+00  0.1262379E-14  0.6172840E-02
    1      -11.564198
    2      -10.916037
    3      -10.356959
    4      -10.066278
    5       -4.472865
    6       -4.312730
    7       -4.031616
    8       -3.274239
    9       -3.216635
   10       -2.921363
   11       -2.823048
   12       -2.822831
   13       -2.013639
   14       -1.551178
   15       -1.149810
   16       -0.879296
   17       -0.600084
   18       -0.052729
   19        1.277630
   20        1.485047
   21        1.996182
   22        2.019463
   23        2.194001
   24        2.312819
 
  0.3611111E+00  0.1388889E+00  0.1262379E-14  0.6172840E-02
    1      -11.279189
    2      -10.713843
    3      -10.333330
    4      -10.051514
    5       -4.565885
    6       -4.360137
    7       -4.096611
    8       -3.334156
    9       -3.291780
   10       -3.278187
   11       -2.792775
   12       -2.737952
   13       -2.289426
   14       -1.580098
   15       -1.361593
   16       -0.986283
   17       -0.480786
   18       -0.026470
   19        1.258228
   20        1.386837
   21        1.816501
   22        2.062186
   23        2.289914
   24        2.362511
 
  0.4166667E+00  0.1388889E+00  0.1262379E-14  0.6172840E-02
    1      -10.991015
    2      -10.511641
    3      -10.381619
    4      -10.087480
    5       -4.691386
    6       -4.354412
    7       -4.340791
    8       -3.666038
    9       -3.239603
   10       -3.164683
   11       -2.740132
   12       -2.568740
   13       -2.478886
   14       -1.648579
   15       -1.542359
   16       -1.125957
   17       -0.368420
   18       -0.078567
   19        1.331754
   20        1.397919
   21        1.733525
   22        2.166656
   23        2.223255
   24        2.366873
 
  0.4722222E+00  0.1388889E+00  0.1262379E-14  0.6172840E-02
    1      -10.726347
    2      -10.515106
    3      -10.327717
    4      -10.181294
    5       -4.710844
    6       -4.589400
    7       -4.219653
    8       -3.988801
    9       -3.138187
   10       -3.105728
   11       -2.680072
   12       -2.600747
   13       -2.297208
   14       -1.971187
   15       -1.435277
   16       -1.284852
   17       -0.279318
   18       -0.179991
   19        1.450840
   20        1.500840
   21        1.728590
   22        1.950813
   23        2.285615
   24        2.367168
 
 -0.4722222E+00  0.1388889E+00  0.1262379E-14  0.6172840E-02
    1      -10.726347
    2      -10.515106
    3      -10.327717
    4      -10.181294
    5       -4.710844
    6       -4.589400
    7       -4.219653
    8       -3.988801
    9       -3.138187
   10       -3.105728
   11       -2.680072
   12       -2.600747
   13       -2.297208
   14       -1.971187
   15       -1.435277
   16       -1.284852
   17       -0.279318
   18       -0.179991
   19        1.450840
   20        1.500840
   21        1.728590
   22        1.950813
   23        2.285615
   24        2.367168
 
 -0.4166667E+00  0.1388889E+00  0.1262379E-14  0.6172840E-02
    1      -10.991015
    2      -10.511641
    3      -10.381619
    4      -10.087480
    5       -4.691386
    6       -4.354412
    7       -4.340791
    8       -3.666038
    9       -3.239603
   10       -3.164683
   11       -2.740132
   12       -2.568740
   13       -2.478886
   14       -1.648579
   15       -1.542359
   16       -1.125957
   17       -0.368420
   18       -0.078567
   19        1.331754
   20        1.397919
   21        1.733525
   22        2.166656
   23        2.223255
   24        2.366873
 
 -0.3611111E+00  0.1388889E+00  0.1262379E-14  0.6172840E-02
    1      -11.279189
    2      -10.713843
    3      -10.333330
    4      -10.051514
    5       -4.565885
    6       -4.360137
    7       -4.096611
    8       -3.334156
    9       -3.291780
   10       -3.278187
   11       -2.792775
   12       -2.737952
   13       -2.289426
   14       -1.580098
   15       -1.361593
   16       -0.986283
   17       -0.480786
   18       -0.026470
   19        1.258228
   20        1.386837
   21        1.816501
   22        2.062186
   23        2.289914
   24        2.362511
 
 -0.3055556E+00  0.1388889E+00  0.1262379E-14  0.6172840E-02
    1      -11.564198
    2      -10.916037
    3      -10.356959
    4      -10.066278
    5       -4.472865
    6       -4.312730
    7       -4.031616
    8       -3.274239
    9       -3.216635
   10       -2.921363
   11       -2.823048
   12       -2.822831
   13       -2.013639
   14       -1.551178
   15       -1.149810
   16       -0.879296
   17       -0.600084
   18       -0.052729
   19        1.277630
   20        1.485047
   21        1.996182
   22        2.019463
   23        2.194001
   24        2.312819
 
 -0.2500000E+00  0.1388889E+00  0.1262379E-14  0.6172840E-02
    1      -11.825535
    2      -11.103279
    3      -10.426456
    4      -10.115619
    5       -4.545713
    6       -4.251782
    7       -4.184914
    8       -3.108402
    9       -2.870546
   10       -2.793976
   11       -2.749065
   12       -2.594798
   13       -1.672410
   14       -1.488321
   15       -1.117542
   16       -0.802099
   17       -0.605061
   18       -0.120866
   19        1.360880
   20        1.650147
   21        2.082512
   22        2.143040
   23        2.145958
   24        2.290236
 
 -0.1944444E+00  0.1388889E+00  0.1262379E-14  0.6172840E-02
    1      -12.048597
    2      -11.264280
    3      -10.514287
    4      -10.180427
    5       -4.711205
    6       -4.384410
    7       -4.220306
    8       -3.105281