       N       E                     dE             d eps       ncg     rms          rms(c)
DAV:   1     0.187241438033E+03    0.18724E+03   -0.95948E+03  7776   0.794E+02
DAV:   2    -0.179360876786E+02   -0.20518E+03   -0.19995E+03 11608   0.177E+02
DAV:   3    -0.368035690628E+02   -0.18867E+02   -0.18680E+02 10320   0.597E+01
DAV:   4    -0.374897932052E+02   -0.68622E+00   -0.68346E+00 12464   0.129E+01
DAV:   5    -0.374999061202E+02   -0.10113E-01   -0.10107E-01 11048   0.175E+00    0.214E+01
DAV:   6    -0.366695048823E+02    0.83040E+00   -0.73716E+00 10208   0.120E+01    0.922E+00
DAV:   7    -0.366325223991E+02    0.36982E-01   -0.87385E+00  9864   0.136E+01    0.743E+00
DAV:   8    -0.360949359658E+02    0.53759E+00   -0.14805E+00 10440   0.584E+00    0.251E+00
DAV:   9    -0.360688403291E+02    0.26096E-01   -0.34847E-01 10864   0.272E+00    0.685E-01
DAV:  10    -0.360642200688E+02    0.46203E-02   -0.27463E-02 11000   0.889E-01    0.251E-01
DAV:  11    -0.360634867501E+02    0.73332E-03   -0.51470E-03 11088   0.347E-01    0.252E-01
DAV:  12    -0.360629800524E+02    0.50670E-03   -0.12347E-03 10912   0.171E-01    0.124E-01
DAV:  13    -0.360628266875E+02    0.15336E-03   -0.56009E-04 11320   0.966E-02    0.767E-02
DAV:  14    -0.360625050914E+02    0.32160E-03   -0.50544E-04 10240   0.922E-02    0.426E-02
DAV:  15    -0.360625492238E+02   -0.44132E-04   -0.85476E-05 11056   0.426E-02    0.336E-02
DAV:  16    -0.360626861133E+02   -0.13689E-03   -0.16178E-05  9168   0.195E-02    0.383E-02
DAV:  17    -0.360628408199E+02   -0.15471E-03   -0.21309E-05  9224   0.171E-02    0.231E-02
DAV:  18    -0.360629448022E+02   -0.10398E-03   -0.10617E-05 10672   0.140E-02    0.693E-03
DAV:  19    -0.360630190338E+02   -0.74232E-04   -0.25113E-06  7136   0.622E-03    0.917E-03
DAV:  20    -0.360630326674E+02   -0.13634E-04   -0.48029E-07  6496   0.275E-03    0.466E-03
DAV:  21    -0.360630356928E+02   -0.30254E-05   -0.15727E-07  5712   0.139E-03    0.181E-03
DAV:  22    -0.360630363991E+02   -0.70627E-06   -0.98649E-08  5168   0.118E-03
   1 F= -.36063036E+02 E0= -.36060459E+02  d E =-.360630E+02
       N       E                     dE             d eps       ncg     rms          rms(c)
DAV:   1    -0.360630458337E+02   -0.10141E-04   -0.39029E-04  8184   0.866E-02    0.160E-02
DAV:   2    -0.360630463665E+02   -0.53281E-06   -0.18714E-05  8992   0.211E-02    0.959E-03
DAV:   3    -0.360630459542E+02    0.41232E-06   -0.51602E-07  4472   0.444E-03
   2 F= -.36063046E+02 E0= -.36060468E+02  d E =-.955514E-05
       N       E                     dE             d eps       ncg     rms          rms(c)
DAV:   1    -0.360630462331E+02    0.13348E-06   -0.99011E-05  8272   0.437E-02    0.866E-03
DAV:   2    -0.360630462388E+02   -0.56912E-08   -0.51856E-06  8776   0.101E-02
   3 F= -.36063046E+02 E0= -.36060468E+02  d E =-.983968E-05
