<?xml version="1.0" encoding="ISO-8859-1"?>
<modeling>
 <generator>
  <i name="program" type="string">vasp </i>
  <i name="version" type="string">5.3.5  </i>
  <i name="subversion" type="string">31Mar14 (build Mar 18 2017 11:34:20) complex                          parallel </i>
  <i name="platform" type="string">LinuxIFC </i>
  <i name="date" type="string">2017 10 27 </i>
  <i name="time" type="string">21:58:57 </i>
 </generator>
 <incar>
  <i type="string" name="SYSTEM"> 2D MoTe2 in a box</i>
  <i type="string" name="PREC">accurate</i>
  <i type="string" name="ALGO"> Normal</i>
  <i type="int" name="NELMDL">    -5</i>
  <i type="int" name="IBRION">     2</i>
  <i name="EDIFF">      0.00000100</i>
  <i type="int" name="NSW">  1000</i>
  <i type="int" name="ISIF">     2</i>
  <i type="int" name="ISYM">     0</i>
  <i name="ENCUT">    350.00000000</i>
  <i name="POTIM">      0.50000000</i>
  <i name="NELECT">     35.98000000</i>
  <i type="logical" name="LREAL"> F  </i>
  <i type="int" name="ISMEAR">    -1</i>
  <i name="SIGMA">      0.06035217</i>
  <i type="int" name="NWRITE">     3</i>
  <i type="logical" name="LWAVE"> F  </i>
  <i type="logical" name="LCHARG"> F  </i>
 </incar>
 <kpoints>
  <generation param="Monkhorst-Pack">
   <v type="int" name="divisions">      18       18        1 </v>
   <v name="usershift">      0.00000000       0.00000000       0.00000000 </v>
   <v name="genvec1">      0.05555556       0.00000000       0.00000000 </v>
   <v name="genvec2">      0.00000000       0.05555556       0.00000000 </v>
   <v name="genvec3">      0.00000000       0.00000000       1.00000000 </v>
   <v name="shift">      0.50000000       0.50000000       0.00000000 </v>
  </generation>
  <varray name="kpointlist" >
   <v>       0.02777778       0.02777778       0.00000000 </v>
   <v>       0.08333333       0.02777778       0.00000000 </v>
   <v>       0.13888889       0.02777778       0.00000000 </v>
   <v>       0.19444444       0.02777778       0.00000000 </v>
   <v>       0.25000000       0.02777778       0.00000000 </v>
   <v>       0.30555556       0.02777778       0.00000000 </v>
   <v>       0.36111111       0.02777778       0.00000000 </v>
   <v>       0.41666667       0.02777778       0.00000000 </v>
   <v>       0.47222222       0.02777778       0.00000000 </v>
   <v>      -0.47222222       0.02777778       0.00000000 </v>
   <v>      -0.41666667       0.02777778       0.00000000 </v>
   <v>      -0.36111111       0.02777778       0.00000000 </v>
   <v>      -0.30555556       0.02777778       0.00000000 </v>
   <v>      -0.25000000       0.02777778       0.00000000 </v>
   <v>      -0.19444444       0.02777778       0.00000000 </v>
   <v>      -0.13888889       0.02777778       0.00000000 </v>
   <v>      -0.08333333       0.02777778       0.00000000 </v>
   <v>      -0.02777778       0.02777778       0.00000000 </v>
   <v>       0.02777778       0.08333333       0.00000000 </v>
   <v>       0.08333333       0.08333333       0.00000000 </v>
   <v>       0.13888889       0.08333333       0.00000000 </v>
   <v>       0.19444444       0.08333333       0.00000000 </v>
   <v>       0.25000000       0.08333333       0.00000000 </v>
   <v>       0.30555556       0.08333333       0.00000000 </v>
   <v>       0.36111111       0.08333333       0.00000000 </v>
   <v>       0.41666667       0.08333333       0.00000000 </v>
   <v>       0.47222222       0.08333333       0.00000000 </v>
   <v>      -0.47222222       0.08333333       0.00000000 </v>
   <v>      -0.41666667       0.08333333       0.00000000 </v>
   <v>      -0.36111111       0.08333333       0.00000000 </v>
   <v>      -0.30555556       0.08333333       0.00000000 </v>
   <v>      -0.25000000       0.08333333       0.00000000 </v>
   <v>      -0.19444444       0.08333333       0.00000000 </v>
   <v>      -0.13888889       0.08333333       0.00000000 </v>
   <v>      -0.08333333       0.08333333       0.00000000 </v>
   <v>      -0.02777778       0.08333333       0.00000000 </v>
   <v>       0.02777778       0.13888889       0.00000000 </v>
   <v>       0.08333333       0.13888889       0.00000000 </v>
   <v>       0.13888889       0.13888889       0.00000000 </v>
   <v>       0.19444444       0.13888889       0.00000000 </v>
   <v>       0.25000000       0.13888889       0.00000000 </v>
   <v>       0.30555556       0.13888889       0.00000000 </v>
   <v>       0.36111111       0.13888889       0.00000000 </v>
   <v>       0.41666667       0.13888889       0.00000000 </v>
   <v>       0.47222222       0.13888889       0.00000000 </v>
   <v>      -0.47222222       0.13888889       0.00000000 </v>
   <v>      -0.41666667       0.13888889       0.00000000 </v>
   <v>      -0.36111111       0.13888889       0.00000000 </v>
   <v>      -0.30555556       0.13888889       0.00000000 </v>
   <v>      -0.25000000       0.13888889       0.00000000 </v>
   <v>      -0.19444444       0.13888889       0.00000000 </v>
   <v>      -0.13888889       0.13888889       0.00000000 </v>
   <v>      -0.08333333       0.13888889       0.00000000 </v>
   <v>      -0.02777778       0.13888889       0.00000000 </v>
   <v>       0.02777778       0.19444444       0.00000000 </v>
   <v>       0.08333333       0.19444444       0.00000000 </v>
   <v>       0.13888889       0.19444444       0.00000000 </v>
   <v>       0.19444444       0.19444444       0.00000000 </v>
   <v>       0.25000000       0.19444444       0.00000000 </v>
   <v>       0.30555556       0.19444444       0.00000000 </v>
   <v>       0.36111111       0.19444444       0.00000000 </v>
   <v>       0.41666667       0.19444444       0.00000000 </v>
   <v>       0.47222222       0.19444444       0.00000000 </v>
   <v>      -0.47222222       0.19444444       0.00000000 </v>
   <v>      -0.41666667       0.19444444       0.00000000 </v>
   <v>      -0.36111111       0.19444444       0.00000000 </v>
   <v>      -0.30555556       0.19444444       0.00000000 </v>
   <v>      -0.25000000       0.19444444       0.00000000 </v>
   <v>      -0.19444444       0.19444444       0.00000000 </v>
   <v>      -0.13888889       0.19444444       0.00000000 </v>
   <v>      -0.08333333       0.19444444       0.00000000 </v>
   <v>      -0.02777778       0.19444444       0.00000000 </v>
   <v>       0.02777778       0.25000000       0.00000000 </v>
   <v>       0.08333333       0.25000000       0.00000000 </v>
   <v>       0.13888889       0.25000000       0.00000000 </v>
   <v>       0.19444444       0.25000000       0.00000000 </v>
   <v>       0.25000000       0.25000000       0.00000000 </v>
   <v>       0.30555556       0.25000000       0.00000000 </v>
   <v>       0.36111111       0.25000000       0.00000000 </v>
   <v>       0.41666667       0.25000000       0.00000000 </v>
   <v>       0.47222222       0.25000000       0.00000000 </v>
   <v>      -0.47222222       0.25000000       0.00000000 </v>
   <v>      -0.41666667       0.25000000       0.00000000 </v>
   <v>      -0.36111111       0.25000000       0.00000000 </v>
   <v>      -0.30555556       0.25000000       0.00000000 </v>
   <v>      -0.25000000       0.25000000       0.00000000 </v>
   <v>      -0.19444444       0.25000000       0.00000000 </v>
   <v>      -0.13888889       0.25000000       0.00000000 </v>
   <v>      -0.08333333       0.25000000       0.00000000 </v>
   <v>      -0.02777778       0.25000000       0.00000000 </v>
   <v>       0.02777778       0.30555556       0.00000000 </v>
   <v>       0.08333333       0.30555556       0.00000000 </v>
   <v>       0.13888889       0.30555556       0.00000000 </v>
   <v>       0.19444444       0.30555556       0.00000000 </v>
   <v>       0.25000000       0.30555556       0.00000000 </v>
   <v>       0.30555556       0.30555556       0.00000000 </v>
   <v>       0.36111111       0.30555556       0.00000000 </v>
   <v>       0.41666667       0.30555556       0.00000000 </v>
   <v>       0.47222222       0.30555556       0.00000000 </v>
   <v>      -0.47222222       0.30555556       0.00000000 </v>
   <v>      -0.41666667       0.30555556       0.00000000 </v>
   <v>      -0.36111111       0.30555556       0.00000000 </v>
   <v>      -0.30555556       0.30555556       0.00000000 </v>
   <v>      -0.25000000       0.30555556       0.00000000 </v>
   <v>      -0.19444444       0.30555556       0.00000000 </v>
   <v>      -0.13888889       0.30555556       0.00000000 </v>
   <v>      -0.08333333       0.30555556       0.00000000 </v>
   <v>      -0.02777778       0.30555556       0.00000000 </v>
   <v>       0.02777778       0.36111111       0.00000000 </v>
   <v>       0.08333333       0.36111111       0.00000000 </v>
   <v>       0.13888889       0.36111111       0.00000000 </v>
   <v>       0.19444444       0.36111111       0.00000000 </v>
   <v>       0.25000000       0.36111111       0.00000000 </v>
   <v>       0.30555556       0.36111111       0.00000000 </v>
   <v>       0.36111111       0.36111111       0.00000000 </v>
   <v>       0.41666667       0.36111111       0.00000000 </v>
   <v>       0.47222222       0.36111111       0.00000000 </v>
   <v>      -0.47222222       0.36111111       0.00000000 </v>
   <v>      -0.41666667       0.36111111       0.00000000 </v>
   <v>      -0.36111111       0.36111111       0.00000000 </v>
   <v>      -0.30555556       0.36111111       0.00000000 </v>
   <v>      -0.25000000       0.36111111       0.00000000 </v>
   <v>      -0.19444444       0.36111111       0.00000000 </v>
   <v>      -0.13888889       0.36111111       0.00000000 </v>
   <v>      -0.08333333       0.36111111       0.00000000 </v>
   <v>      -0.02777778       0.36111111       0.00000000 </v>
   <v>       0.02777778       0.41666667       0.00000000 </v>
   <v>       0.08333333       0.41666667       0.00000000 </v>
   <v>       0.13888889       0.41666667       0.00000000 </v>
   <v>       0.19444444       0.41666667       0.00000000 </v>
   <v>       0.25000000       0.41666667       0.00000000 </v>
   <v>       0.30555556       0.41666667       0.00000000 </v>
   <v>       0.36111111       0.41666667       0.00000000 </v>
   <v>       0.41666667       0.41666667       0.00000000 </v>
   <v>       0.47222222       0.41666667       0.00000000 </v>
   <v>      -0.47222222       0.41666667       0.00000000 </v>
   <v>      -0.41666667       0.41666667       0.00000000 </v>
   <v>      -0.36111111       0.41666667       0.00000000 </v>
   <v>      -0.30555556       0.41666667       0.00000000 </v>
   <v>      -0.25000000       0.41666667       0.00000000 </v>
   <v>      -0.19444444       0.41666667       0.00000000 </v>
   <v>      -0.13888889       0.41666667       0.00000000 </v>
   <v>      -0.08333333       0.41666667       0.00000000 </v>
   <v>      -0.02777778       0.41666667       0.00000000 </v>
   <v>       0.02777778       0.47222222       0.00000000 </v>
   <v>       0.08333333       0.47222222       0.00000000 </v>
   <v>       0.13888889       0.47222222       0.00000000 </v>
   <v>       0.19444444       0.47222222       0.00000000 </v>
   <v>       0.25000000       0.47222222       0.00000000 </v>
   <v>       0.30555556       0.47222222       0.00000000 </v>
   <v>       0.36111111       0.47222222       0.00000000 </v>
   <v>       0.41666667       0.47222222       0.00000000 </v>
   <v>       0.47222222       0.47222222       0.00000000 </v>
   <v>      -0.47222222       0.47222222       0.00000000 </v>
   <v>      -0.41666667       0.47222222       0.00000000 </v>
   <v>      -0.36111111       0.47222222       0.00000000 </v>
   <v>      -0.30555556       0.47222222       0.00000000 </v>
   <v>      -0.25000000       0.47222222       0.00000000 </v>
   <v>      -0.19444444       0.47222222       0.00000000 </v>
   <v>      -0.13888889       0.47222222       0.00000000 </v>
   <v>      -0.08333333       0.47222222       0.00000000 </v>
   <v>      -0.02777778       0.47222222       0.00000000 </v>
  </varray>
  <varray name="weights" >
   <v>       0.00617284 </v>
   <v>       0.00617284 </v>
   <v>       0.00617284 </v>
   <v>       0.00617284 </v>
   <v>       0.00617284 </v>
   <v>       0.00617284 </v>
   <v>       0.00617284 </v>
   <v>       0.00617284 </v>
   <v>       0.00617284 </v>
   <v>       0.00617284 </v>
   <v>       0.00617284 </v>
   <v>       0.00617284 </v>
   <v>       0.00617284 </v>
   <v>       0.00617284 </v>
   <v>       0.00617284 </v>
   <v>       0.00617284 </v>
   <v>       0.00617284 </v>
   <v>       0.00617284 </v>
   <v>       0.00617284 </v>
   <v>       0.00617284 </v>
   <v>       0.00617284 </v>
   <v>       0.00617284 </v>
   <v>       0.00617284 </v>
   <v>       0.00617284 </v>
   <v>       0.00617284 </v>
   <v>       0.00617284 </v>
   <v>       0.00617284 </v>
   <v>       0.00617284 </v>
   <v>       0.00617284 </v>
   <v>       0.00617284 </v>
   <v>       0.00617284 </v>
   <v>       0.00617284 </v>
   <v>       0.00617284 </v>
   <v>       0.00617284 </v>
   <v>       0.00617284 </v>
   <v>       0.00617284 </v>
   <v>       0.00617284 </v>
   <v>       0.00617284 </v>
   <v>       0.00617284 </v>
   <v>       0.00617284 </v>
   <v>       0.00617284 </v>
   <v>       0.00617284 </v>
   <v>       0.00617284 </v>
   <v>       0.00617284 </v>
   <v>       0.00617284 </v>
   <v>       0.00617284 </v>
   <v>       0.00617284 </v>
   <v>       0.00617284 </v>
   <v>       0.00617284 </v>
   <v>       0.00617284 </v>
   <v>       0.00617284 </v>
   <v>       0.00617284 </v>
   <v>       0.00617284 </v>
   <v>       0.00617284 </v>
   <v>       0.00617284 </v>
   <v>       0.00617284 </v>
   <v>       0.00617284 </v>
   <v>       0.00617284 </v>
   <v>       0.00617284 </v>
   <v>       0.00617284 </v>
   <v>       0.00617284 </v>
   <v>       0.00617284 </v>
   <v>       0.00617284 </v>
   <v>       0.00617284 </v>
   <v>       0.00617284 </v>
   <v>       0.00617284 </v>
   <v>       0.00617284 </v>
   <v>       0.00617284 </v>
   <v>       0.00617284 </v>
   <v>       0.00617284 </v>
   <v>       0.00617284 </v>
   <v>       0.00617284 </v>
   <v>       0.00617284 </v>
   <v>       0.00617284 </v>
   <v>       0.00617284 </v>
   <v>       0.00617284 </v>
   <v>       0.00617284 </v>
   <v>       0.00617284 </v>
   <v>       0.00617284 </v>
   <v>       0.00617284 </v>
   <v>       0.00617284 </v>
   <v>       0.00617284 </v>
   <v>       0.00617284 </v>
   <v>       0.00617284 </v>
   <v>       0.00617284 </v>
   <v>       0.00617284 </v>
   <v>       0.00617284 </v>
   <v>       0.00617284 </v>
   <v>       0.00617284 </v>
   <v>       0.00617284 </v>
   <v>       0.00617284 </v>
   <v>       0.00617284 </v>
   <v>       0.00617284 </v>
   <v>       0.00617284 </v>
   <v>       0.00617284 </v>
   <v>       0.00617284 </v>
   <v>       0.00617284 </v>
   <v>       0.00617284 </v>
   <v>       0.00617284 </v>
   <v>       0.00617284 </v>
   <v>       0.00617284 </v>
   <v>       0.00617284 </v>
   <v>       0.00617284 </v>
   <v>       0.00617284 </v>
   <v>       0.00617284 </v>
   <v>       0.00617284 </v>
   <v>       0.00617284 </v>
   <v>       0.00617284 </v>
   <v>       0.00617284 </v>
   <v>       0.00617284 </v>
   <v>       0.00617284 </v>
   <v>       0.00617284 </v>
   <v>       0.00617284 </v>
   <v>       0.00617284 </v>
   <v>       0.00617284 </v>
   <v>       0.00617284 </v>
   <v>       0.00617284 </v>
   <v>       0.00617284 </v>
   <v>       0.00617284 </v>
   <v>       0.00617284 </v>
   <v>       0.00617284 </v>
   <v>       0.00617284 </v>
   <v>       0.00617284 </v>
   <v>       0.00617284 </v>
   <v>       0.00617284 </v>
   <v>       0.00617284 </v>
   <v>       0.00617284 </v>
   <v>       0.00617284 </v>
   <v>       0.00617284 </v>
   <v>       0.00617284 </v>
   <v>       0.00617284 </v>
   <v>       0.00617284 </v>
   <v>       0.00617284 </v>
   <v>       0.00617284 </v>
   <v>       0.00617284 </v>
   <v>       0.00617284 </v>
   <v>       0.00617284 </v>
   <v>       0.00617284 </v>
   <v>       0.00617284 </v>
   <v>       0.00617284 </v>
   <v>       0.00617284 </v>
   <v>       0.00617284 </v>
   <v>       0.00617284 </v>
   <v>       0.00617284 </v>
   <v>       0.00617284 </v>
   <v>       0.00617284 </v>
   <v>       0.00617284 </v>
   <v>       0.00617284 </v>
   <v>       0.00617284 </v>
   <v>       0.00617284 </v>
   <v>       0.00617284 </v>
   <v>       0.00617284 </v>
   <v>       0.00617284 </v>
   <v>       0.00617284 </v>
   <v>       0.00617284 </v>
   <v>       0.00617284 </v>
   <v>       0.00617284 </v>
   <v>       0.00617284 </v>
   <v>       0.00617284 </v>
   <v>       0.00617284 </v>
   <v>       0.00617284 </v>
   <v>       0.00617284 </v>
  </varray>
 </kpoints>
 <parameters>
  <separator name="general" >
   <i type="string" name="SYSTEM">2D MoTe2 in a box</i>
   <i type="logical" name="LCOMPAT"> F  </i>
  </separator>
  <separator name="electronic" >
   <i type="string" name="PREC">accura</i>
   <i name="ENMAX">    350.00000000</i>
   <i name="ENAUG">    368.79200000</i>
   <i name="EDIFF">      0.00000100</i>
   <i type="int" name="IALGO">    38</i>
   <i type="int" name="IWAVPR">    11</i>
   <i type="int" name="NBANDS">    24</i>
   <i name="NELECT">     35.98000000</i>
   <i type="int" name="TURBO">     0</i>
   <i type="int" name="IRESTART">     0</i>
   <i type="int" name="NREBOOT">     0</i>
   <i type="int" name="NMIN">     0</i>
   <i name="EREF">      0.00000000</i>
   <separator name="electronic smearing" >
    <i type="int" name="ISMEAR">    -1</i>
    <i name="SIGMA">      0.06035217</i>
    <i name="KSPACING">      0.50000000</i>
    <i type="logical" name="KGAMMA"> T  </i>
   </separator>
   <separator name="electronic projectors" >
    <i type="logical" name="LREAL"> F  </i>
    <v name="ROPT">      0.00000000      0.00000000</v>
    <i type="int" name="LMAXPAW">  -100</i>
    <i type="int" name="LMAXMIX">     2</i>
    <i type="logical" name="NLSPLINE"> F  </i>
   </separator>
   <separator name="electronic startup" >
    <i type="int" name="ISTART">     0</i>
    <i type="int" name="ICHARG">     2</i>
    <i type="int" name="INIWAV">     1</i>
   </separator>
   <separator name="electronic spin" >
    <i type="int" name="ISPIN">     1</i>
    <i type="logical" name="LNONCOLLINEAR"> F  </i>
    <v name="MAGMOM">      1.00000000      1.00000000      1.00000000      1.00000000      1.00000000      1.00000000</v>
    <i name="NUPDOWN">     -1.00000000</i>
    <i type="logical" name="LSORBIT"> F  </i>
    <v name="SAXIS">      0.00000000      0.00000000      1.00000000</v>
    <i type="logical" name="LSPIRAL"> F  </i>
    <v name="QSPIRAL">      0.00000000      0.00000000      0.00000000</v>
    <i type="logical" name="LZEROZ"> F  </i>
   </separator>
   <separator name="electronic exchange-correlation" >
    <i type="logical" name="LASPH"> F  </i>
    <i type="logical" name="LMETAGGA"> F  </i>
   </separator>
   <separator name="electronic convergence" >
    <i type="int" name="NELM">    60</i>
    <i type="int" name="NELMDL">    -5</i>
    <i type="int" name="NELMIN">     2</i>
    <i name="ENINI">    350.00000000</i>
    <separator name="electronic convergence detail" >
     <i type="logical" name="LDIAG"> T  </i>
     <i type="logical" name="LSUBROT"> F  </i>
     <i name="WEIMIN">      0.00100000</i>
     <i name="EBREAK">      0.00000001</i>
     <i name="DEPER">      0.30000000</i>
     <i type="int" name="NRMM">     4</i>
     <i name="TIME">      0.40000000</i>
    </separator>
   </separator>
   <separator name="electronic mixer" >
    <i name="AMIX">      0.40000000</i>
    <i name="BMIX">      1.00000000</i>
    <i name="AMIN">      0.10000000</i>
    <i name="AMIX_MAG">      1.60000000</i>
    <i name="BMIX_MAG">      1.00000000</i>
    <separator name="electronic mixer details" >
     <i type="int" name="IMIX">     4</i>
     <i type="int" name="MAXMIX">   -45</i>
     <i name="WC">    100.00000000</i>
     <i type="int" name="INIMIX">     1</i>
     <i type="int" name="MIXPRE">     1</i>
     <i type="int" name="MREMOVE">     5</i>
    </separator>
   </separator>
   <separator name="electronic dipolcorrection" >
    <i type="logical" name="LDIPOL"> F  </i>
    <i type="logical" name="LMONO"> F  </i>
    <i type="int" name="IDIPOL">     0</i>
    <i name="EPSILON">      1.00000000</i>
    <v name="DIPOL">   -100.00000000   -100.00000000   -100.00000000</v>
    <i name="EFIELD">      0.00000000</i>
   </separator>
  </separator>
  <separator name="grids" >
   <i type="int" name="NGX">    24</i>
   <i type="int" name="NGY">    40</i>
   <i type="int" name="NGZ">    98</i>
   <i type="int" name="NGXF">    48</i>
   <i type="int" name="NGYF">    80</i>
   <i type="int" name="NGZF">   196</i>
   <i type="logical" name="ADDGRID"> F  </i>
  </separator>
  <separator name="ionic" >
   <i type="int" name="NSW">  1000</i>
   <i type="int" name="IBRION">     2</i>
   <i type="int" name="ISIF">     2</i>
   <i name="PSTRESS">      0.00000000</i>
   <i name="EDIFFG">      0.00001000</i>
   <i type="int" name="NFREE">     1</i>
   <i name="POTIM">      0.50000000</i>
   <i name="SMASS">     -3.00000000</i>
   <i name="SCALEE">      1.00000000</i>
  </separator>
  <separator name="ionic md" >
   <i name="TEBEG">      0.00010000</i>
   <i name="TEEND">      0.00010000</i>
   <i type="int" name="NBLOCK">     1</i>
   <i type="int" name="KBLOCK">  1000</i>
   <i type="int" name="NPACO">   256</i>
   <i name="APACO">     16.00000000</i>
  </separator>
  <separator name="symmetry" >
   <i type="int" name="ISYM">     0</i>
   <i name="SYMPREC">      0.00001000</i>
  </separator>
  <separator name="dos" >
   <i type="logical" name="LORBIT"> F  </i>
   <v name="RWIGS">     -1.00000000     -1.00000000</v>
   <i type="int" name="NEDOS">   301</i>
   <i name="EMIN">     10.00000000</i>
   <i name="EMAX">    -10.00000000</i>
   <i name="EFERMI">      0.00000000</i>
  </separator>
  <separator name="writing" >
   <i type="int" name="NWRITE">     3</i>
   <i type="logical" name="LWAVE"> F  </i>
   <i type="logical" name="LCHARG"> F  </i>
   <i type="logical" name="LPARD"> F  </i>
   <i type="logical" name="LVTOT"> F  </i>
   <i type="logical" name="LVHAR"> F  </i>
   <i type="logical" name="LELF"> F  </i>
   <i type="logical" name="LOPTICS"> F  </i>
   <v name="STM">      0.00000000      0.00000000      0.00000000      0.00000000      0.00000000      0.00000000      0.00000000</v>
  </separator>
  <separator name="performance" >
   <i type="int" name="NPAR">     8</i>
   <i type="int" name="NSIM">     4</i>
   <i type="int" name="NBLK">    -1</i>
   <i type="logical" name="LPLANE"> T  </i>
   <i type="logical" name="LSCALAPACK"> T  </i>
   <i type="logical" name="LSCAAWARE"> F  </i>
   <i type="logical" name="LSCALU"> F  </i>
   <i type="logical" name="LASYNC"> F  </i>
   <i type="logical" name="LORBITALREAL"> F  </i>
  </separator>
  <separator name="miscellaneous" >
   <i type="int" name="IDIOT">     3</i>
   <i type="logical" name="LMUSIC"> F  </i>
   <v name="POMASS">    127.60000000     95.94000000</v>
   <v name="DARWINR">      0.00000000      0.00000000</v>
   <v name="DARWINV">      1.00000000      1.00000000</v>
   <i type="logical" name="LCORR"> T  </i>
  </separator>
  <i type="logical" name="GGA_COMPAT"> T  </i>
  <i type="logical" name="LBERRY"> F  </i>
  <i type="int" name="ICORELEVEL">     0</i>
  <i type="logical" name="LDAU"> F  </i>
  <i type="int" name="I_CONSTRAINED_M">     0</i>
  <separator name="electronic exchange-correlation" >
   <i type="string" name="GGA">--</i>
   <i type="int" name="VOSKOWN">     0</i>
   <i type="logical" name="LHFCALC"> F  </i>
   <i type="string" name="PRECFOCK"></i>
   <i type="logical" name="LSYMGRAD"> F  </i>
   <i type="logical" name="LHFONE"> F  </i>
   <i type="logical" name="LRHFCALC"> F  </i>
   <i type="logical" name="LTHOMAS"> F  </i>
   <i type="logical" name="LMODELHF"> F  </i>
   <i name="ENCUT4O">     -1.00000000</i>
   <i type="int" name="EXXOEP">     0</i>
   <i type="int" name="FOURORBIT">     0</i>
   <i name="AEXX">      0.00000000</i>
   <i name="HFALPHA">      0.00000000</i>
   <i name="MCALPHA">      0.00000000</i>
   <i name="ALDAX">      1.00000000</i>
   <i name="AGGAX">      1.00000000</i>
   <i name="ALDAC">      1.00000000</i>
   <i name="AGGAC">      1.00000000</i>
   <i type="int" name="NKREDX">     1</i>
   <i type="int" name="NKREDY">     1</i>
   <i type="int" name="NKREDZ">     1</i>
   <i type="logical" name="SHIFTRED"> F  </i>
   <i type="logical" name="ODDONLY"> F  </i>
   <i type="logical" name="EVENONLY"> F  </i>
   <i type="int" name="LMAXFOCK">     0</i>
   <i type="int" name="NMAXFOCKAE">     0</i>
   <i type="logical" name="LFOCKAEDFT"> F  </i>
   <i name="HFSCREEN">      0.00000000</i>
   <i name="HFSCREENC">      0.00000000</i>
   <i type="int" name="NBANDSGWLOW">     0</i>
  </separator>
  <separator name="vdW DFT" >
   <i type="logical" name="LUSE_VDW"> F  </i>
   <i name="Zab_VDW">     -0.84910000</i>
   <i name="PARAM1">      0.12340000</i>
   <i name="PARAM2">      1.00000000</i>
   <i name="PARAM3">      0.00000000</i>
  </separator>
  <separator name="model GW" >
   <i type="int" name="MODEL_GW">     0</i>
   <i name="MODEL_EPS0">     34.93615840</i>
   <i name="MODEL_ALPHA">      1.00000000</i>
  </separator>
  <separator name="linear response parameters" >
   <i type="logical" name="LEPSILON"> F  </i>
   <i type="logical" name="LRPA"> F  </i>
   <i type="logical" name="LNABLA"> F  </i>
   <i type="logical" name="LVEL"> F  </i>
   <i type="int" name="KINTER">     0</i>
   <i name="CSHIFT">      0.10000000</i>
   <i name="OMEGAMAX">     -1.00000000</i>
   <i name="DEG_THRESHOLD">      0.00200000</i>
  </separator>
  <separator name="orbital magnetization" >
   <i type="logical" name="NUCIND"> F  </i>
   <v name="MAGPOS">      0.00000000      0.00000000      0.00000000</v>
   <i type="logical" name="LNICSALL"> T  </i>
   <i type="logical" name="ORBITALMAG"> F  </i>
   <i type="logical" name="LMAGBLOCH"> F  </i>
   <i type="logical" name="LCHIMAG"> F  </i>
   <i type="logical" name="LGAUGE"> T  </i>
   <i type="int" name="MAGATOM">     0</i>
   <v name="MAGDIPOL">      0.00000000      0.00000000      0.00000000</v>
   <v name="AVECCONST">      0.00000000      0.00000000      0.00000000</v>
  </separator>
  <separator name="response functions" >
   <i type="logical" name="LADDER"> F  </i>
   <i type="logical" name="LFXC"> F  </i>
   <i type="logical" name="LHARTREE"> T  </i>
   <i type="int" name="IBSE">     0</i>
   <i type="logical" name="LTCTE"> F  </i>
   <i type="logical" name="LTETE"> F  </i>
   <i type="logical" name="LTRIPLET"> F  </i>
   <i type="logical" name="LFXCEPS"> F  </i>
   <i type="logical" name="LFXHEG"> F  </i>
   <i type="logical" name="L2ORDER"> F  </i>
   <i type="logical" name="LUSEW"> F  </i>
   <i name="ENCUTGW">     -2.00000000</i>
   <i name="ENCUTGWSOFT">     -2.00000000</i>
   <i name="ENCUTLF">     -1.00000000</i>
   <i type="int" name="LMAXMP2">    -1</i>
   <i name="SCISSOR">      0.00000000</i>
   <i type="int" name="NOMEGA">     0</i>
   <i type="int" name="NOMEGAR">     0</i>
   <i type="int" name="NBANDSGW">    -1</i>
   <i type="int" name="NBANDSO">    -1</i>
   <i type="int" name="NBANDSV">    -1</i>
   <i type="int" name="NELM">     1</i>
   <i type="int" name="DIM">     3</i>
   <i type="int" name="ANTIRES">     0</i>
   <i name="OMEGAMAX">    -30.00000000</i>
   <i name="OMEGAMIN">    -30.00000000</i>
   <i name="OMEGATL">   -200.00000000</i>
   <i type="int" name="OMEGAGRID">     0</i>
   <i name="CSHIFT">     -0.10000000</i>
   <i type="logical" name="SELFENERGY"> F  </i>
   <i type="logical" name="LSPECTRAL"> F  </i>
   <i type="logical" name="ODDONLYGW"> F  </i>
   <i type="logical" name="EVENONLYGW"> F  </i>
   <i type="int" name="NKREDLFX">     1</i>
   <i type="int" name="NKREDLFY">     1</i>
   <i type="int" name="NKREDLFZ">     1</i>
   <i type="int" name="MAXMEM">  1800</i>
   <i type="int" name="TELESCOPE">     0</i>
   <i type="int" name="TAUPAR">     1</i>
  </separator>
  <separator name="External order field" >
   <i name="OFIELD_KAPPA">      0.00000000</i>
   <v name="OFIELD_K">      0.00000000      0.00000000      0.00000000</v>
   <i name="OFIELD_Q6_NEAR">      0.00000000</i>
   <i name="OFIELD_Q6_FAR">      0.00000000</i>
   <i name="OFIELD_A">      0.00000000</i>
  </separator>
 </parameters>
 <atominfo>
  <atoms>       6 </atoms>
  <types>       2 </types>
  <array name="atoms" >
   <dimension dim="1">ion</dimension>
   <field type="string">element</field>
   <field type="int">atomtype</field>
   <set>
    <rc><c>Te</c><c>   1</c></rc>
    <rc><c>Te</c><c>   1</c></rc>
    <rc><c>Te</c><c>   1</c></rc>
    <rc><c>Te</c><c>   1</c></rc>
    <rc><c>Mo</c><c>   2</c></rc>
    <rc><c>Mo</c><c>   2</c></rc>
   </set>
  </array>
  <array name="atomtypes" >
   <dimension dim="1">type</dimension>
   <field type="int">atomspertype</field>
   <field type="string">element</field>
   <field>mass</field>
   <field>valence</field>
   <field type="string">pseudopotential</field>
   <set>
    <rc><c>   4</c><c>Te</c><c>    127.60000000</c><c>      6.00000000</c><c>  PAW_PBE Te 08Apr2002                  </c></rc>
    <rc><c>   2</c><c>Mo</c><c>     95.94000000</c><c>      6.00000000</c><c>  PAW_PBE Mo 08Apr2002                  </c></rc>
   </set>
  </array>
 </atominfo>
 <structure name="initialpos" >
  <crystal>
   <varray name="basis" >
    <v>       3.55100000       0.00000000       0.00000000 </v>
    <v>       0.00000000       6.14900000       0.00000000 </v>
    <v>       0.00000000       0.00000000      16.00000000 </v>
   </varray>
   <i name="volume">    349.36158400 </i>
   <varray name="rec_basis" >
    <v>       0.28161081       0.00000000       0.00000000 </v>
    <v>       0.00000000       0.16262807       0.00000000 </v>
    <v>       0.00000000       0.00000000       0.06250000 </v>
   </varray>
  </crystal>
  <varray name="positions" >
   <v>       0.00000000       0.66665962       0.11282875 </v>
   <v>       0.00000000       0.66665962       0.88717125 </v>
   <v>       0.50000000       0.16665799       0.11282750 </v>
   <v>       0.50000000       0.16665799       0.88717250 </v>
   <v>       0.50000000       0.50001464       0.00000000 </v>
   <v>       0.00000000       0.00000813       0.00000000 </v>
  </varray>
 </structure>
 <calculation>
  <scstep>
   <time name="dav">    3.12    3.12</time>
   <time name="total">    3.16    3.18</time>
   <energy>
    <i name="alphaZ">     25.36157480 </i>
    <i name="ewald">   1695.32331395 </i>
    <i name="hartreedc">  -2977.11215032 </i>
    <i name="XCdc">   -233.75808350 </i>
    <i name="pawpsdc">   1362.14282323 </i>
    <i name="pawaedc">  -1065.87210056 </i>
    <i name="eentropy">     -0.03997890 </i>
    <i name="bandstr">     53.09149364 </i>
    <i name="atom">   1328.10454569 </i>
    <i name="e_fr_energy">    187.24143803 </i>
    <i name="e_wo_entrp">    187.28141693 </i>
    <i name="e_0_energy">    187.26142748 </i>
   </energy>
  </scstep>
  <scstep>
   <time name="dav">    3.90    3.90</time>
   <time name="total">    3.95    3.95</time>
   <energy>
    <i name="e_fr_energy">    -17.93608768 </i>
    <i name="e_wo_entrp">    -17.93243859 </i>
    <i name="e_0_energy">    -17.93426313 </i>
   </energy>
  </scstep>
  <scstep>
   <time name="dav">    3.75    3.75</time>
   <time name="total">    3.80    3.80</time>
   <energy>
    <i name="e_fr_energy">    -36.80356906 </i>
    <i name="e_wo_entrp">    -36.79928435 </i>
    <i name="e_0_energy">    -36.80142671 </i>
   </energy>
  </scstep>
  <scstep>
   <time name="dav">    4.02    4.02</time>
   <time name="total">    4.08    4.08</time>
   <energy>
    <i name="e_fr_energy">    -37.48979321 </i>
    <i name="e_wo_entrp">    -37.48553385 </i>
    <i name="e_0_energy">    -37.48766353 </i>
   </energy>
  </scstep>
  <scstep>
   <time name="dav">    3.71    3.71</time>
   <time name="total">    3.88    3.88</time>
   <energy>
    <i name="e_fr_energy">    -37.49990612 </i>
    <i name="e_wo_entrp">    -37.49564697 </i>
    <i name="e_0_energy">    -37.49777654 </i>
   </energy>
  </scstep>
  <scstep>
   <time name="dav">    3.67    3.69</time>
   <time name="total">    3.87    3.89</time>
   <energy>
    <i name="e_fr_energy">    -36.66950488 </i>
    <i name="e_wo_entrp">    -36.66348653 </i>
    <i name="e_0_energy">    -36.66649571 </i>
   </energy>
  </scstep>
  <scstep>
   <time name="dav">    3.45    3.45</time>
   <time name="total">    3.65    3.65</time>
   <energy>
    <i name="e_fr_energy">    -36.63252240 </i>
    <i name="e_wo_entrp">    -36.62818490 </i>
    <i name="e_0_energy">    -36.63035365 </i>
   </energy>
  </scstep>
  <scstep>
   <time name="dav">    3.57    3.57</time>
   <time name="total">    3.77    3.78</time>
   <energy>
    <i name="e_fr_energy">    -36.09493597 </i>
    <i name="e_wo_entrp">    -36.09005413 </i>
    <i name="e_0_energy">    -36.09249505 </i>
   </energy>
  </scstep>
  <scstep>
   <time name="dav">    3.67    3.67</time>
   <time name="total">    3.88    3.88</time>
   <energy>
    <i name="e_fr_energy">    -36.06884033 </i>
    <i name="e_wo_entrp">    -36.06358424 </i>
    <i name="e_0_energy">    -36.06621228 </i>
   </energy>
  </scstep>
  <scstep>
   <time name="dav">    3.75    3.75</time>
   <time name="total">    3.95    3.95</time>
   <energy>
    <i name="e_fr_energy">    -36.06422007 </i>
    <i name="e_wo_entrp">    -36.05908368 </i>
    <i name="e_0_energy">    -36.06165188 </i>
   </energy>
  </scstep>
  <scstep>
   <time name="dav">    3.91    3.91</time>
   <time name="total">    4.11    4.11</time>
   <energy>
    <i name="e_fr_energy">    -36.06348675 </i>
    <i name="e_wo_entrp">    -36.05828852 </i>
    <i name="e_0_energy">    -36.06088763 </i>
   </energy>
  </scstep>
  <scstep>
   <time name="dav">    3.68    3.68</time>
   <time name="total">    3.88    3.89</time>
   <energy>
    <i name="e_fr_energy">    -36.06298005 </i>
    <i name="e_wo_entrp">    -36.05781694 </i>
    <i name="e_0_energy">    -36.06039850 </i>
   </energy>
  </scstep>
  <scstep>
   <time name="dav">    3.79    3.79</time>
   <time name="total">    3.99    3.99</time>
   <energy>
    <i name="e_fr_energy">    -36.06282669 </i>
    <i name="e_wo_entrp">    -36.05766511 </i>
    <i name="e_0_energy">    -36.06024590 </i>
   </energy>
  </scstep>
  <scstep>
   <time name="dav">    3.70    3.72</time>
   <time name="total">    3.90    3.93</time>
   <energy>
    <i name="e_fr_energy">    -36.06250509 </i>
    <i name="e_wo_entrp">    -36.05734639 </i>
    <i name="e_0_energy">    -36.05992574 </i>
   </energy>
  </scstep>
  <scstep>
   <time name="dav">    3.72    3.72</time>
   <time name="total">    3.92    3.93</time>
   <energy>
    <i name="e_fr_energy">    -36.06254922 </i>
    <i name="e_wo_entrp">    -36.05739644 </i>
    <i name="e_0_energy">    -36.05997283 </i>
   </energy>
  </scstep>
  <scstep>
   <time name="dav">    3.34    3.34</time>
   <time name="total">    3.54    3.55</time>
   <energy>
    <i name="e_fr_energy">    -36.06268611 </i>
    <i name="e_wo_entrp">    -36.05753425 </i>
    <i name="e_0_energy">    -36.06011018 </i>
   </energy>
  </scstep>
  <scstep>
   <time name="dav">    3.31    3.31</time>
   <time name="total">    3.51    3.51</time>
   <energy>
    <i name="e_fr_energy">    -36.06284082 </i>
    <i name="e_wo_entrp">    -36.05768827 </i>
    <i name="e_0_energy">    -36.06026455 </i>
   </energy>
  </scstep>
  <scstep>
   <time name="dav">    3.63    3.63</time>
   <time name="total">    3.84    3.84</time>
   <energy>
    <i name="e_fr_energy">    -36.06294480 </i>
    <i name="e_wo_entrp">    -36.05779039 </i>
    <i name="e_0_energy">    -36.06036760 </i>
   </energy>
  </scstep>
  <scstep>
   <time name="dav">    3.07    3.07</time>
   <time name="total">    3.27    3.27</time>
   <energy>
    <i name="e_fr_energy">    -36.06301903 </i>
    <i name="e_wo_entrp">    -36.05786410 </i>
    <i name="e_0_energy">    -36.06044157 </i>
   </energy>
  </scstep>
  <scstep>
   <time name="dav">    2.75    2.76</time>
   <time name="total">    2.96    2.96</time>
   <energy>
    <i name="e_fr_energy">    -36.06303267 </i>
    <i name="e_wo_entrp">    -36.05787776 </i>
    <i name="e_0_energy">    -36.06045521 </i>
   </energy>
  </scstep>
  <scstep>
   <time name="dav">    2.59    2.59</time>
   <time name="total">    2.79    2.79</time>
   <energy>
    <i name="e_fr_energy">    -36.06303569 </i>
    <i name="e_wo_entrp">    -36.05788091 </i>
    <i name="e_0_energy">    -36.06045830 </i>
   </energy>
  </scstep>
  <scstep>
   <time name="dav">    2.47    2.47</time>
   <time name="total">    2.56    2.56</time>
   <energy>
    <i name="alphaZ">     25.36157480 </i>
    <i name="ewald">   1695.32331395 </i>
    <i name="hartreedc">  -2994.15069682 </i>
    <i name="XCdc">   -232.33543173 </i>
    <i name="pawpsdc">   2731.89599206 </i>
    <i name="pawaedc">  -2438.12802882 </i>
    <i name="eentropy">     -0.00515459 </i>
    <i name="bandstr">   -152.12915095 </i>
    <i name="atom">   1328.10454569 </i>
    <i name="e_fr_energy">    -36.06303640 </i>
    <i name="e_wo_entrp">    -36.05788181 </i>
    <i name="e_0_energy">    -36.06045910 </i>
   </energy>
  </scstep>
  <structure>
   <crystal>
    <varray name="basis" >
     <v>       3.55100000       0.00000000       0.00000000 </v>
     <v>       0.00000000       6.14900000       0.00000000 </v>
     <v>       0.00000000       0.00000000      16.00000000 </v>
    </varray>
    <i name="volume">    349.36158400 </i>
    <varray name="rec_basis" >
     <v>       0.28161081       0.00000000       0.00000000 </v>
     <v>       0.00000000       0.16262807       0.00000000 </v>
     <v>       0.00000000       0.00000000       0.06250000 </v>
    </varray>
   </crystal>
   <varray name="positions" >
    <v>       0.00000000       0.66665962       0.11282875 </v>
    <v>       0.00000000       0.66665962       0.88717125 </v>
    <v>       0.50000000       0.16665799       0.11282750 </v>
    <v>       0.50000000       0.16665799       0.88717250 </v>
    <v>       0.50000000       0.50001464       0.00000000 </v>
    <v>       0.00000000       0.00000813       0.00000000 </v>
   </varray>
  </structure>
  <varray name="forces" >
   <v>       0.00000002      -0.00004516       0.00915173 </v>
   <v>       0.00000004      -0.00004527      -0.00915191 </v>
   <v>      -0.00000004       0.00008442       0.00914036 </v>
   <v>      -0.00000011       0.00008436      -0.00914058 </v>
   <v>       0.00000009      -0.00022066       0.00000028 </v>
   <v>      -0.00000000       0.00014230       0.00000013 </v>
  </varray>
  <varray name="stress" >
   <v>      -1.17166882      -0.00000043      -0.00000029 </v>
   <v>      -0.00000044      -1.07870919      -0.00000045 </v>
   <v>      -0.00000039      -0.00000035      -0.68772269 </v>
  </varray>
  <energy>
   <i name="e_fr_energy">    -36.06303640 </i>
   <i name="e_wo_entrp">    -36.06045910 </i>
   <i name="e_0_energy">     -0.00515459 </i>
  </energy>
  <time name="totalsc">   81.90   82.01</time>
 </calculation>
 <calculation>
  <scstep>
   <time name="dav">    3.18    3.20</time>
   <time name="total">    3.32    3.35</time>
   <energy>
    <i name="alphaZ">     25.36157480 </i>
    <i name="ewald">   1694.66001750 </i>
    <i name="hartreedc">  -2993.51255744 </i>
    <i name="XCdc">   -232.33905424 </i>
    <i name="pawpsdc">   2731.89922671 </i>
    <i name="pawaedc">  -2438.13126930 </i>
    <i name="eentropy">     -0.00515553 </i>
    <i name="bandstr">   -152.10037403 </i>
    <i name="atom">   1328.10454569 </i>
    <i name="e_fr_energy">    -36.06304583 </i>
    <i name="e_wo_entrp">    -36.05789030 </i>
    <i name="e_0_energy">    -36.06046807 </i>
   </energy>
  </scstep>
  <scstep>
   <time name="dav">    3.29    3.29</time>
   <time name="total">    3.49    3.49</time>
   <energy>
    <i name="e_fr_energy">    -36.06304637 </i>
    <i name="e_wo_entrp">    -36.05788957 </i>
    <i name="e_0_energy">    -36.06046797 </i>
   </energy>
  </scstep>
  <scstep>
   <time name="dav">    2.33    2.32</time>
   <time name="total">    2.41    2.41</time>
   <energy>
    <i name="alphaZ">     25.36157480 </i>
    <i name="ewald">   1694.66001750 </i>
    <i name="hartreedc">  -2993.51250200 </i>
    <i name="XCdc">   -232.33873955 </i>
    <i name="pawpsdc">   2731.20698623 </i>
    <i name="pawaedc">  -2437.43790114 </i>
    <i name="eentropy">     -0.00515628 </i>
    <i name="bandstr">   -152.10187122 </i>
    <i name="atom">   1328.10454569 </i>
    <i name="e_fr_energy">    -36.06304595 </i>
    <i name="e_wo_entrp">    -36.05788967 </i>
    <i name="e_0_energy">    -36.06046781 </i>
   </energy>
  </scstep>
  <structure>
   <crystal>
    <varray name="basis" >
     <v>       3.55100000       0.00000000       0.00000000 </v>
     <v>       0.00000000       6.14900000       0.00000000 </v>
     <v>       0.00000000       0.00000000      16.00000000 </v>
    </varray>
    <i name="volume">    349.36158400 </i>
    <varray name="rec_basis" >
     <v>       0.28161081       0.00000000       0.00000000 </v>
     <v>       0.00000000       0.16262807       0.00000000 </v>
     <v>       0.00000000       0.00000000       0.06250000 </v>
    </varray>
   </crystal>
   <varray name="positions" >
    <v>       0.00000000       0.66665927       0.11285634 </v>
    <v>       0.00000000       0.66665926       0.88714366 </v>
    <v>       0.50000000       0.16665866       0.11285506 </v>
    <v>       0.50000000       0.16665866       0.88714494 </v>
    <v>       0.50000000       0.50001291       0.00000000 </v>
    <v>      -0.00000000       0.00000925       0.00000000 </v>
   </varray>
  </structure>
  <varray name="forces" >
   <v>       0.00000000      -0.00003614       0.00302699 </v>
   <v>      -0.00000001      -0.00003633      -0.00302666 </v>
   <v>       0.00000004       0.00003412       0.00313399 </v>
   <v>       0.00000005       0.00003432      -0.00313374 </v>
   <v>      -0.00000007      -0.00004800      -0.00000026 </v>
   <v>      -0.00000001       0.00005203      -0.00000033 </v>
  </varray>
  <varray name="stress" >
   <v>      -1.25578595       0.00000087      -0.00000031 </v>
   <v>       0.00000090      -1.16252700      -0.00000034 </v>
   <v>      -0.00000023      -0.00000034      -0.88962904 </v>
  </varray>
  <energy>
   <i name="e_fr_energy">    -36.06304595 </i>
   <i name="e_wo_entrp">    -36.06046781 </i>
   <i name="e_0_energy">     -0.00515628 </i>
  </energy>
  <time name="totalsc">   10.85   10.89</time>
 </calculation>
 <calculation>
  <scstep>
   <time name="dav">    3.10    3.10</time>
   <time name="total">    3.25    3.25</time>
   <energy>
    <i name="alphaZ">     25.36157480 </i>
    <i name="ewald">   1694.32322102 </i>
    <i name="hartreedc">  -2993.18810809 </i>
    <i name="XCdc">   -232.34040154 </i>
    <i name="pawpsdc">   2731.01487535 </i>
    <i name="pawaedc">  -2437.24514590 </i>
    <i name="eentropy">     -0.00515711 </i>
    <i name="bandstr">   -152.08845045 </i>
    <i name="atom">   1328.10454569 </i>
    <i name="e_fr_energy">    -36.06304623 </i>
    <i name="e_wo_entrp">    -36.05788912 </i>
    <i name="e_0_energy">    -36.06046768 </i>
   </energy>
  </scstep>
  <scstep>
   <time name="dav">    3.28    3.28</time>
   <time name="total">    3.37    3.37</time>
   <energy>
    <i name="alphaZ">     25.36157480 </i>
    <i name="ewald">   1694.32322102 </i>
    <i name="hartreedc">  -2993.18994333 </i>
    <i name="XCdc">   -232.34030920 </i>
    <i name="pawpsdc">   2730.69373323 </i>
    <i name="pawaedc">  -2436.92357533 </i>
    <i name="eentropy">     -0.00515721 </i>
    <i name="bandstr">   -152.08713592 </i>
    <i name="atom">   1328.10454569 </i>
    <i name="e_fr_energy">    -36.06304624 </i>
    <i name="e_wo_entrp">    -36.05788903 </i>
    <i name="e_0_energy">    -36.06046764 </i>
   </energy>
  </scstep>
  <structure>
   <crystal>
    <varray name="basis" >
     <v>       3.55100000       0.00000000       0.00000000 </v>
     <v>       0.00000000       6.14900000       0.00000000 </v>
     <v>       0.00000000       0.00000000      16.00000000 </v>
    </varray>
    <i name="volume">    349.36158400 </i>
    <varray name="rec_basis" >
     <v>       0.28161081       0.00000000       0.00000000 </v>
     <v>       0.00000000       0.16262807       0.00000000 </v>
     <v>       0.00000000       0.00000000       0.06250000 </v>
    </varray>
   </crystal>
   <varray name="positions" >
    <v>       0.00000000       0.66665909       0.11287036 </v>
    <v>       0.00000000       0.66665908       0.88712964 </v>
    <v>       0.50000000       0.16665899       0.11286905 </v>
    <v>       0.50000000       0.16665899       0.88713094 </v>
    <v>       0.50000000       0.50001203       0.00000000 </v>
    <v>      -0.00000000       0.00000981       0.00000000 </v>
   </varray>
  </structure>
  <varray name="forces" >
   <v>       0.00000003      -0.00011956       0.00008324 </v>
   <v>       0.00000002      -0.00011973      -0.00008255 </v>
   <v>       0.00000004       0.00010497       0.00034481 </v>
   <v>       0.00000007       0.00010515      -0.00034433 </v>
   <v>      -0.00000017       0.00002623      -0.00000078 </v>
   <v>       0.00000000       0.00000293      -0.00000039 </v>
  </varray>
  <varray name="stress" >
   <v>      -1.28935924       0.00000069       0.00000075 </v>
   <v>       0.00000060      -1.19584255      -0.00000083 </v>
   <v>       0.00000069      -0.00000093      -0.99004737 </v>
  </varray>
  <energy>
   <i name="e_fr_energy">    -36.06304624 </i>
   <i name="e_wo_entrp">    -36.06046764 </i>
   <i name="e_0_energy">     -0.00515721 </i>
  </energy>
  <time name="totalsc">    8.15    8.15</time>
  <eigenvalues>
   <array>
    <dimension dim="1">band</dimension>
    <dimension dim="2">kpoint</dimension>
    <dimension dim="3">spin</dimension>
    <field>eigene</field>
    <field>occ</field>
    <set>
     <set comment="spin 1">
      <set comment="kpoint 1">
       <r>  -12.4655    1.0000 </r>
       <r>  -11.5675    1.0000 </r>
       <r>  -10.5655    1.0000 </r>
       <r>  -10.2340    1.0000 </r>
       <r>   -5.2602    1.0000 </r>
       <r>   -4.8246    1.0000 </r>
       <r>   -4.4262    1.0000 </r>
       <r>   -3.2197    1.0000 </r>
       <r>   -2.2221    1.0000 </r>
       <r>   -1.6430    1.0000 </r>
       <r>   -1.6083    1.0000 </r>
       <r>   -1.5746    1.0000 </r>
       <r>   -1.5287    1.0000 </r>
       <r>   -0.8267    1.0000 </r>
       <r>   -0.7968    1.0000 </r>
       <r>   -0.7291    1.0000 </r>
       <r>   -0.3896    0.9999 </r>
       <r>   -0.2218    0.9983 </r>
       <r>    1.4530    0.0000 </r>
       <r>    1.7802    0.0000 </r>
       <r>    3.1033    0.0000 </r>
       <r>    3.1666    0.0000 </r>
       <r>    3.3375    0.0000 </r>
       <r>    3.3644    0.0000 </r>
      </set>
      <set comment="kpoint 2">
       <r>  -12.4041    1.0000 </r>
       <r>  -11.5227    1.0000 </r>
       <r>  -10.5347    1.0000 </r>
       <r>  -10.2093    1.0000 </r>
       <r>   -5.1858    1.0000 </r>
       <r>   -4.7562    1.0000 </r>
       <r>   -4.4087    1.0000 </r>
       <r>   -3.1966    1.0000 </r>
       <r>   -2.3308    1.0000 </r>
       <r>   -1.7723    1.0000 </r>
       <r>   -1.7477    1.0000 </r>
       <r>   -1.5228    1.0000 </r>
       <r>   -1.5122    1.0000 </r>
       <r>   -1.1218    1.0000 </r>
       <r>   -0.9159    1.0000 </r>
       <r>   -0.7227    1.0000 </r>
       <r>   -0.3954    0.9999 </r>
       <r>   -0.1779    0.9964 </r>
       <r>    1.4792    0.0000 </r>
       <r>    1.8176    0.0000 </r>
       <r>    2.8329    0.0000 </r>
       <r>    2.9715    0.0000 </r>
       <r>    3.1846    0.0000 </r>
       <r>    3.2189    0.0000 </r>
      </set>
      <set comment="kpoint 3">
       <r>  -12.2830    1.0000 </r>
       <r>  -11.4344    1.0000 </r>
       <r>  -10.4779    1.0000 </r>
       <r>  -10.1641    1.0000 </r>
       <r>   -5.0397    1.0000 </r>
       <r>   -4.6243    1.0000 </r>
       <r>   -4.3818    1.0000 </r>
       <r>   -3.1612    1.0000 </r>
       <r>   -2.4991    1.0000 </r>
       <r>   -2.0067    1.0000 </r>
       <r>   -1.9704    1.0000 </r>
       <r>   -1.7012    1.0000 </r>
       <r>   -1.5078    1.0000 </r>
       <r>   -1.4264    1.0000 </r>
       <r>   -1.1098    1.0000 </r>
       <r>   -0.6364    1.0000 </r>
       <r>   -0.4191    0.9999 </r>
       <r>   -0.1464    0.9939 </r>
       <r>    1.4619    0.0000 </r>
       <r>    1.9397    0.0000 </r>
       <r>    2.4675    0.0000 </r>
       <r>    2.4900    0.0000 </r>
       <r>    2.6989    0.0000 </r>
       <r>    2.9801    0.0000 </r>
      </set>
      <set comment="kpoint 4">
       <r>  -12.1061    1.0000 </r>
       <r>  -11.3059    1.0000 </r>
       <r>  -10.4053    1.0000 </r>
       <r>  -10.1069    1.0000 </r>
       <r>   -4.8280    1.0000 </r>
       <r>   -4.4398    1.0000 </r>
       <r>   -4.3607    1.0000 </r>
       <r>   -3.1456    1.0000 </r>
       <r>   -2.6694    1.0000 </r>
       <r>   -2.3527    1.0000 </r>
       <r>   -2.3119    1.0000 </r>
       <r>   -2.1951    1.0000 </r>
       <r>   -1.5324    1.0000 </r>
       <r>   -1.4190    1.0000 </r>
       <r>   -1.3051    1.0000 </r>
       <r>   -0.5863    1.0000 </r>
       <r>   -0.4765    1.0000 </r>
       <r>   -0.0999    0.9870 </r>
       <r>    1.3769    0.0000 </r>
       <r>    2.0482    0.0000 </r>
       <r>    2.1415    0.0000 </r>
       <r>    2.1729    0.0000 </r>
       <r>    2.3080    0.0000 </r>
       <r>    2.6242    0.0000 </r>
      </set>
      <set comment="kpoint 5">
       <r>  -11.8799    1.0000 </r>
       <r>  -11.1422    1.0000 </r>
       <r>  -10.3329    1.0000 </r>
       <r>  -10.0511    1.0000 </r>
       <r>   -4.5658    1.0000 </r>
       <r>   -4.3604    1.0000 </r>
       <r>   -4.2249    1.0000 </r>
       <r>   -3.2782    1.0000 </r>
       <r>   -2.7933    1.0000 </r>
       <r>   -2.7413    1.0000 </r>
       <r>   -2.7384    1.0000 </r>
       <r>   -2.4351    1.0000 </r>
       <r>   -1.8160    1.0000 </r>
       <r>   -1.5798    1.0000 </r>
       <r>   -1.2165    1.0000 </r>
       <r>   -0.5980    1.0000 </r>
       <r>   -0.5523    1.0000 </r>
       <r>   -0.0265    0.9575 </r>
       <r>    1.2585    0.0000 </r>
       <r>    1.7104    0.0000 </r>
       <r>    2.0239    0.0000 </r>
       <r>    2.0620    0.0000 </r>
       <r>    2.2572    0.0000 </r>
       <r>    2.3630    0.0000 </r>
      </set>
      <set comment="kpoint 6">
       <r>  -11.6138    1.0000 </r>
       <r>  -10.9509    1.0000 </r>
       <r>  -10.2835    1.0000 </r>
       <r>  -10.0139    1.0000 </r>
       <r>   -4.3773    1.0000 </r>
       <r>   -4.3116    1.0000 </r>
       <r>   -4.0319    1.0000 </r>
       <r>   -3.6034    1.0000 </r>
       <r>   -3.1005    1.0000 </r>
       <r>   -2.8481    1.0000 </r>
       <r>   -2.8313    1.0000 </r>
       <r>   -2.7198    1.0000 </r>
       <r>   -2.2086    1.0000 </r>
       <r>   -1.6226    1.0000 </r>
       <r>   -1.2855    1.0000 </r>
       <r>   -0.6791    1.0000 </r>
       <r>   -0.5521    1.0000 </r>
       <r>    0.0444    0.8744 </r>
       <r>    1.1621    0.0000 </r>
       <r>    1.4707    0.0000 </r>
       <r>    1.9549    0.0000 </r>
       <r>    1.9745    0.0000 </r>
       <r>    2.0105    0.0000 </r>
       <r>    2.5258    0.0000 </r>
      </set>
      <set comment="kpoint 7">
       <r>  -11.3220    1.0000 </r>
       <r>  -10.7429    1.0000 </r>
       <r>  -10.2837    1.0000 </r>
       <r>  -10.0141    1.0000 </r>
       <r>   -4.3771    1.0000 </r>
       <r>   -4.3113    1.0000 </r>
       <r>   -4.0064    1.0000 </r>
       <r>   -3.6035    1.0000 </r>
       <r>   -3.2710    1.0000 </r>
       <r>   -3.0980    1.0000 </r>
       <r>   -2.8480    1.0000 </r>
       <r>   -2.8313    1.0000 </r>
       <r>   -2.4814    1.0000 </r>
       <r>   -1.6228    1.0000 </r>
       <r>   -1.5454    1.0000 </r>
       <r>   -0.8224    1.0000 </r>
       <r>   -0.4626    1.0000 </r>
       <r>    0.0445    0.8741 </r>
       <r>    1.1618    0.0000 </r>
       <r>    1.3313    0.0000 </r>
       <r>    1.8218    0.0000 </r>
       <r>    1.9550    0.0000 </r>
       <r>    2.0749    0.0000 </r>
       <r>    2.5254    0.0000 </r>
      </set>
      <set comment="kpoint 8">
       <r>  -11.0238    1.0000 </r>
       <r>  -10.5324    1.0000 </r>
       <r>  -10.3573    1.0000 </r>
       <r>  -10.0667    1.0000 </r>
       <r>   -4.4721    1.0000 </r>
       <r>   -4.3122    1.0000 </r>
       <r>   -4.2057    1.0000 </r>
       <r>   -3.5120    1.0000 </r>
       <r>   -3.2747    1.0000 </r>
       <r>   -3.1868    1.0000 </r>
       <r>   -2.8230    1.0000 </r>
       <r>   -2.8229    1.0000 </r>
       <r>   -2.6389    1.0000 </r>
       <r>   -1.9098    1.0000 </r>
       <r>   -1.5515    1.0000 </r>
       <r>   -1.0100    1.0000 </r>
       <r>   -0.3753    0.9999 </r>
       <r>   -0.0523    0.9718 </r>
       <r>    1.2771    0.0000 </r>
       <r>    1.3544    0.0000 </r>
       <r>    1.7458    0.0000 </r>
       <r>    2.0195    0.0000 </r>
       <r>    2.1431    0.0000 </r>
       <r>    2.3121    0.0000 </r>
      </set>
      <set comment="kpoint 9">
       <r>  -10.7449    1.0000 </r>
       <r>  -10.5144    1.0000 </r>
       <r>  -10.3373    1.0000 </r>
       <r>  -10.1768    1.0000 </r>
       <r>   -4.5175    1.0000 </r>
       <r>   -4.4153    1.0000 </r>
       <r>   -4.1486    1.0000 </r>
       <r>   -3.8767    1.0000 </r>
       <r>   -3.0554    1.0000 </r>
       <r>   -3.0133    1.0000 </r>
       <r>   -2.7869    1.0000 </r>
       <r>   -2.7317    1.0000 </r>
       <r>   -2.7044    1.0000 </r>
       <r>   -2.3212    1.0000 </r>
       <r>   -1.4076    1.0000 </r>
       <r>   -1.2157    1.0000 </r>
       <r>   -0.2959    0.9995 </r>
       <r>   -0.1860    0.9969 </r>
       <r>    1.4301    0.0000 </r>
       <r>    1.4876    0.0000 </r>
       <r>    1.7350    0.0000 </r>
       <r>    1.9837    0.0000 </r>
       <r>    2.1022    0.0000 </r>
       <r>    2.1553    0.0000 </r>
      </set>
      <set comment="kpoint 10">
       <r>  -10.7449    1.0000 </r>
       <r>  -10.5144    1.0000 </r>
       <r>  -10.3373    1.0000 </r>
       <r>  -10.1768    1.0000 </r>
       <r>   -4.5175    1.0000 </r>
       <r>   -4.4153    1.0000 </r>
       <r>   -4.1486    1.0000 </r>
       <r>   -3.8767    1.0000 </r>
       <r>   -3.0554    1.0000 </r>
       <r>   -3.0133    1.0000 </r>
       <r>   -2.7869    1.0000 </r>
       <r>   -2.7317    1.0000 </r>
       <r>   -2.7044    1.0000 </r>
       <r>   -2.3212    1.0000 </r>
       <r>   -1.4076    1.0000 </r>
       <r>   -1.2157    1.0000 </r>
       <r>   -0.2959    0.9995 </r>
       <r>   -0.1860    0.9969 </r>
       <r>    1.4301    0.0000 </r>
       <r>    1.4876    0.0000 </r>
       <r>    1.7350    0.0000 </r>
       <r>    1.9837    0.0000 </r>
       <r>    2.1022    0.0000 </r>
       <r>    2.1553    0.0000 </r>
      </set>
      <set comment="kpoint 11">
       <r>  -11.0238    1.0000 </r>
       <r>  -10.5324    1.0000 </r>
       <r>  -10.3573    1.0000 </r>
       <r>  -10.0667    1.0000 </r>
       <r>   -4.4721    1.0000 </r>
       <r>   -4.3122    1.0000 </r>
       <r>   -4.2057    1.0000 </r>
       <r>   -3.5120    1.0000 </r>
       <r>   -3.2747    1.0000 </r>
       <r>   -3.1868    1.0000 </r>
       <r>   -2.8230    1.0000 </r>
       <r>   -2.8229    1.0000 </r>
       <r>   -2.6389    1.0000 </r>
       <r>   -1.9098    1.0000 </r>
       <r>   -1.5515    1.0000 </r>
       <r>   -1.0100    1.0000 </r>
       <r>   -0.3753    0.9999 </r>
       <r>   -0.0523    0.9718 </r>
       <r>    1.2771    0.0000 </r>
       <r>    1.3544    0.0000 </r>
       <r>    1.7458    0.0000 </r>
       <r>    2.0195    0.0000 </r>
       <r>    2.1431    0.0000 </r>
       <r>    2.3121    0.0000 </r>
      </set>
      <set comment="kpoint 12">
       <r>  -11.3220    1.0000 </r>
       <r>  -10.7429    1.0000 </r>
       <r>  -10.2837    1.0000 </r>
       <r>  -10.0141    1.0000 </r>
       <r>   -4.3771    1.0000 </r>
       <r>   -4.3113    1.0000 </r>
       <r>   -4.0064    1.0000 </r>
       <r>   -3.6035    1.0000 </r>
       <r>   -3.2710    1.0000 </r>
       <r>   -3.0980    1.0000 </r>
       <r>   -2.8480    1.0000 </r>
       <r>   -2.8313    1.0000 </r>
       <r>   -2.4814    1.0000 </r>
       <r>   -1.6228    1.0000 </r>
       <r>   -1.5454    1.0000 </r>
       <r>   -0.8224    1.0000 </r>
       <r>   -0.4626    1.0000 </r>
       <r>    0.0445    0.8741 </r>
       <r>    1.1618    0.0000 </r>
       <r>    1.3313    0.0000 </r>
       <r>    1.8218    0.0000 </r>
       <r>    1.9550    0.0000 </r>
       <r>    2.0749    0.0000 </r>
       <r>    2.5254    0.0000 </r>
      </set>
      <set comment="kpoint 13">
       <r>  -11.6138    1.0000 </r>
       <r>  -10.9509    1.0000 </r>
       <r>  -10.2835    1.0000 </r>
       <r>  -10.0139    1.0000 </r>
       <r>   -4.3773    1.0000 </r>
       <r>   -4.3116    1.0000 </r>
       <r>   -4.0319    1.0000 </r>
       <r>   -3.6034    1.0000 </r>
       <r>   -3.1005    1.0000 </r>
       <r>   -2.8481    1.0000 </r>
       <r>   -2.8313    1.0000 </r>
       <r>   -2.7198    1.0000 </r>
       <r>   -2.2086    1.0000 </r>
       <r>   -1.6226    1.0000 </r>
       <r>   -1.2855    1.0000 </r>
       <r>   -0.6791    1.0000 </r>
       <r>   -0.5521    1.0000 </r>
       <r>    0.0444    0.8744 </r>
       <r>    1.1621    0.0000 </r>
       <r>    1.4707    0.0000 </r>
       <r>    1.9549    0.0000 </r>
       <r>    1.9745    0.0000 </r>
       <r>    2.0105    0.0000 </r>
       <r>    2.5258    0.0000 </r>
      </set>
      <set comment="kpoint 14">
       <r>  -11.8799    1.0000 </r>
       <r>  -11.1422    1.0000 </r>
       <r>  -10.3329    1.0000 </r>
       <r>  -10.0511    1.0000 </r>
       <r>   -4.5658    1.0000 </r>
       <r>   -4.3604    1.0000 </r>
       <r>   -4.2249    1.0000 </r>
       <r>   -3.2782    1.0000 </r>
       <r>   -2.7933    1.0000 </r>
       <r>   -2.7413    1.0000 </r>
       <r>   -2.7384    1.0000 </r>
       <r>   -2.4351    1.0000 </r>
       <r>   -1.8160    1.0000 </r>
       <r>   -1.5798    1.0000 </r>
       <r>   -1.2165    1.0000 </r>
       <r>   -0.5980    1.0000 </r>
       <r>   -0.5523    1.0000 </r>
       <r>   -0.0265    0.9575 </r>
       <r>    1.2585    0.0000 </r>
       <r>    1.7104    0.0000 </r>
       <r>    2.0239    0.0000 </r>
       <r>    2.0620    0.0000 </r>
       <r>    2.2572    0.0000 </r>
       <r>    2.3630    0.0000 </r>
      </set>
      <set comment="kpoint 15">
       <r>  -12.1061    1.0000 </r>
       <r>  -11.3059    1.0000 </r>
       <r>  -10.4053    1.0000 </r>
       <r>  -10.1069    1.0000 </r>
       <r>   -4.8280    1.0000 </r>
       <r>   -4.4398    1.0000 </r>
       <r>   -4.3607    1.0000 </r>
       <r>   -3.1456    1.0000 </r>
       <r>   -2.6694    1.0000 </r>
       <r>   -2.3527    1.0000 </r>
       <r>   -2.3119    1.0000 </r>
       <r>   -2.1951    1.0000 </r>
       <r>   -1.5324    1.0000 </r>
       <r>   -1.4190    1.0000 </r>
       <r>   -1.3051    1.0000 </r>
       <r>   -0.5863    1.0000 </r>
       <r>   -0.4765    1.0000 </r>
       <r>   -0.0999    0.9870 </r>
       <r>    1.3769    0.0000 </r>
       <r>    2.0482    0.0000 </r>
       <r>    2.1415    0.0000 </r>
       <r>    2.1729    0.0000 </r>
       <r>    2.3080    0.0000 </r>
       <r>    2.6242    0.0000 </r>
      </set>
      <set comment="kpoint 16">
       <r>  -12.2830    1.0000 </r>
       <r>  -11.4344    1.0000 </r>
       <r>  -10.4779    1.0000 </r>
       <r>  -10.1641    1.0000 </r>
       <r>   -5.0397    1.0000 </r>
       <r>   -4.6243    1.0000 </r>
       <r>   -4.3818    1.0000 </r>
       <r>   -3.1612    1.0000 </r>
       <r>   -2.4991    1.0000 </r>
       <r>   -2.0067    1.0000 </r>
       <r>   -1.9704    1.0000 </r>
       <r>   -1.7012    1.0000 </r>
       <r>   -1.5078    1.0000 </r>
       <r>   -1.4264    1.0000 </r>
       <r>   -1.1098    1.0000 </r>
       <r>   -0.6364    1.0000 </r>
       <r>   -0.4191    0.9999 </r>
       <r>   -0.1464    0.9939 </r>
       <r>    1.4619    0.0000 </r>
       <r>    1.9397    0.0000 </r>
       <r>    2.4675    0.0000 </r>
       <r>    2.4900    0.0000 </r>
       <r>    2.6989    0.0000 </r>
       <r>    2.9801    0.0000 </r>
      </set>
      <set comment="kpoint 17">
       <r>  -12.4041    1.0000 </r>
       <r>  -11.5227    1.0000 </r>
       <r>  -10.5347    1.0000 </r>
       <r>  -10.2093    1.0000 </r>
       <r>   -5.1858    1.0000 </r>
       <r>   -4.7562    1.0000 </r>
       <r>   -4.4087    1.0000 </r>
       <r>   -3.1966    1.0000 </r>
       <r>   -2.3308    1.0000 </r>
       <r>   -1.7723    1.0000 </r>
       <r>   -1.7477    1.0000 </r>
       <r>   -1.5228    1.0000 </r>
       <r>   -1.5122    1.0000 </r>
       <r>   -1.1218    1.0000 </r>
       <r>   -0.9159    1.0000 </r>
       <r>   -0.7227    1.0000 </r>
       <r>   -0.3954    0.9999 </r>
       <r>   -0.1779    0.9964 </r>
       <r>    1.4792    0.0000 </r>
       <r>    1.8176    0.0000 </r>
       <r>    2.8329    0.0000 </r>
       <r>    2.9715    0.0000 </r>
       <r>    3.2157    0.0000 </r>
       <r>    3.2421    0.0000 </r>
      </set>
      <set comment="kpoint 18">
       <r>  -12.4655    1.0000 </r>
       <r>  -11.5675    1.0000 </r>
       <r>  -10.5655    1.0000 </r>
       <r>  -10.2340    1.0000 </r>
       <r>   -5.2602    1.0000 </r>
       <r>   -4.8246    1.0000 </r>
       <r>   -4.4262    1.0000 </r>
       <r>   -3.2197    1.0000 </r>
       <r>   -2.2221    1.0000 </r>
       <r>   -1.6430    1.0000 </r>
       <r>   -1.6083    1.0000 </r>
       <r>   -1.5746    1.0000 </r>
       <r>   -1.5287    1.0000 </r>
       <r>   -0.8267    1.0000 </r>
       <r>   -0.7968    1.0000 </r>
       <r>   -0.7291    1.0000 </r>
       <r>   -0.3896    0.9999 </r>
       <r>   -0.2218    0.9983 </r>
       <r>    1.4530    0.0000 </r>
       <r>    1.7802    0.0000 </r>
       <r>    3.1033    0.0000 </r>
       <r>    3.1666    0.0000 </r>
       <r>    3.3375    0.0000 </r>
       <r>    3.3723    0.0000 </r>
      </set>
      <set comment="kpoint 19">
       <r>  -12.4450    1.0000 </r>
       <r>  -11.5525    1.0000 </r>
       <r>  -10.6105    1.0000 </r>
       <r>  -10.2632    1.0000 </r>
       <r>   -5.1923    1.0000 </r>
       <r>   -4.8016    1.0000 </r>
       <r>   -4.3693    1.0000 </r>
       <r>   -3.2272    1.0000 </r>
       <r>   -2.2072    1.0000 </r>
       <r>   -1.6894    1.0000 </r>
       <r>   -1.6544    1.0000 </r>
       <r>   -1.5583    1.0000 </r>
       <r>   -1.5185    1.0000 </r>
       <r>   -0.8575    1.0000 </r>
       <r>   -0.7670    1.0000 </r>
       <r>   -0.7594    1.0000 </r>
       <r>   -0.3910    0.9999 </r>
       <r>   -0.2456    0.9988 </r>
       <r>    1.4702    0.0000 </r>
       <r>    1.7526    0.0000 </r>
       <r>    3.0051    0.0000 </r>
       <r>    3.1837    0.0000 </r>
       <r>    3.2014    0.0000 </r>
       <r>    3.3113    0.0000 </r>
      </set>
      <set comment="kpoint 20">
       <r>  -12.3837    1.0000 </r>
       <r>  -11.5078    1.0000 </r>
       <r>  -10.5785    1.0000 </r>
       <r>  -10.2378    1.0000 </r>
       <r>   -5.1213    1.0000 </r>
       <r>   -4.7338    1.0000 </r>
       <r>   -4.3528    1.0000 </r>
       <r>   -3.2019    1.0000 </r>
       <r>   -2.3244    1.0000 </r>
       <r>   -1.8109    1.0000 </r>
       <r>   -1.7931    1.0000 </r>
       <r>   -1.5055    1.0000 </r>
       <r>   -1.4923    1.0000 </r>
       <r>   -1.1400    1.0000 </r>
       <r>   -0.9367    1.0000 </r>
       <r>   -0.7134    1.0000 </r>
       <r>   -0.3983    0.9999 </r>
       <r>   -0.2015    0.9976 </r>
       <r>    1.4912    0.0000 </r>
       <r>    1.7817    0.0000 </r>
       <r>    2.7598    0.0000 </r>
       <r>    2.8685    0.0000 </r>
       <r>    3.1288    0.0000 </r>
       <r>    3.2128    0.0000 </r>
      </set>
      <set comment="kpoint 21">
       <r>  -12.2630    1.0000 </r>
       <r>  -11.4199    1.0000 </r>
       <r>  -10.5192    1.0000 </r>
       <r>  -10.1913    1.0000 </r>
       <r>   -4.9832    1.0000 </r>
       <r>   -4.6031    1.0000 </r>
       <r>   -4.3284    1.0000 </r>
       <r>   -3.1606    1.0000 </r>
       <r>   -2.5008    1.0000 </r>
       <r>   -2.0514    1.0000 </r>
       <r>   -2.0069    1.0000 </r>
       <r>   -1.7064    1.0000 </r>
       <r>   -1.4783    1.0000 </r>
       <r>   -1.4070    1.0000 </r>
       <r>   -1.1047    1.0000 </r>
       <r>   -0.6632    1.0000 </r>
       <r>   -0.4252    0.9999 </r>
       <r>   -0.1719    0.9960 </r>
       <r>    1.4802    0.0000 </r>
       <r>    1.8848    0.0000 </r>
       <r>    2.4135    0.0000 </r>
       <r>    2.4333    0.0000 </r>
       <r>    2.6758    0.0000 </r>
       <r>    2.9668    0.0000 </r>
      </set>
      <set comment="kpoint 22">
       <r>  -12.0869    1.0000 </r>
       <r>  -11.2920    1.0000 </r>
       <r>  -10.4426    1.0000 </r>
       <r>  -10.1320    1.0000 </r>
       <r>   -4.7878    1.0000 </r>
       <r>   -4.4212    1.0000 </r>
       <r>   -4.3131    1.0000 </r>
       <r>   -3.1296    1.0000 </r>
       <r>   -2.6741    1.0000 </r>
       <r>   -2.3977    1.0000 </r>
       <r>   -2.3095    1.0000 </r>
       <r>   -2.2392    1.0000 </r>
       <r>   -1.4987    1.0000 </r>
       <r>   -1.3864    1.0000 </r>
       <r>   -1.2805    1.0000 </r>
       <r>   -0.6451    1.0000 </r>
       <r>   -0.4881    1.0000 </r>
       <r>   -0.1301    0.9921 </r>
       <r>    1.4056    0.0000 </r>
       <r>    1.9967    0.0000 </r>
       <r>    2.0703    0.0000 </r>
       <r>    2.1819    0.0000 </r>
       <r>    2.3006    0.0000 </r>
       <r>    2.6331    0.0000 </r>
      </set>
      <set comment="kpoint 23">
       <r>  -11.8617    1.0000 </r>
       <r>  -11.1292    1.0000 </r>
       <r>  -10.3648    1.0000 </r>
       <r>  -10.0731    1.0000 </r>
       <r>   -4.5602    1.0000 </r>
       <r>   -4.3235    1.0000 </r>
       <r>   -4.2112    1.0000 </r>
       <r>   -3.2157    1.0000 </r>
       <r>   -2.7945    1.0000 </r>
       <r>   -2.7871    1.0000 </r>
       <r>   -2.7454    1.0000 </r>
       <r>   -2.4973    1.0000 </r>
       <r>   -1.7569    1.0000 </r>
       <r>   -1.5481    1.0000 </r>
       <r>   -1.1812    1.0000 </r>
       <r>   -0.6726    1.0000 </r>
       <r>   -0.5701    1.0000 </r>
       <r>   -0.0621    0.9760 </r>
       <r>    1.2971    0.0000 </r>
       <r>    1.6868    0.0000 </r>
       <r>    2.0689    0.0000 </r>
       <r>    2.0696    0.0000 </r>
       <r>    2.2748    0.0000 </r>
       <r>    2.2827    0.0000 </r>
      </set>
      <set comment="kpoint 24">
       <r>  -11.5972    1.0000 </r>
       <r>  -10.9392    1.0000 </r>
       <r>  -10.3084    1.0000 </r>
       <r>  -10.0317    1.0000 </r>
       <r>   -4.3838    1.0000 </r>
       <r>   -4.3554    1.0000 </r>
       <r>   -4.0307    1.0000 </r>
       <r>   -3.4701    1.0000 </r>
       <r>   -3.1435    1.0000 </r>
       <r>   -2.8403    1.0000 </r>
       <r>   -2.8325    1.0000 </r>
       <r>   -2.8022    1.0000 </r>
       <r>   -2.1272    1.0000 </r>
       <r>   -1.5978    1.0000 </r>
       <r>   -1.2371    1.0000 </r>
       <r>   -0.7517    1.0000 </r>
       <r>   -0.5682    1.0000 </r>
       <r>    0.0077    0.9274 </r>
       <r>    1.2052    0.0000 </r>
       <r>    1.4757    0.0000 </r>
       <r>    1.9766    0.0000 </r>
       <r>    1.9841    0.0000 </r>
       <r>    2.0785    0.0000 </r>
       <r>    2.4484    0.0000 </r>
      </set>
      <set comment="kpoint 25">
       <r>  -11.3076    1.0000 </r>
       <r>  -10.7332    1.0000 </r>
       <r>  -10.3004    1.0000 </r>
       <r>  -10.0267    1.0000 </r>
       <r>   -4.4248    1.0000 </r>
       <r>   -4.3717    1.0000 </r>
       <r>   -4.0359    1.0000 </r>
       <r>   -3.4565    1.0000 </r>
       <r>   -3.2975    1.0000 </r>
       <r>   -3.1753    1.0000 </r>
       <r>   -2.8292    1.0000 </r>
       <r>   -2.8093    1.0000 </r>
       <r>   -2.4039    1.0000 </r>
       <r>   -1.6080    1.0000 </r>
       <r>   -1.4789    1.0000 </r>
       <r>   -0.8815    1.0000 </r>
       <r>   -0.4687    1.0000 </r>
       <r>    0.0182    0.9148 </r>
       <r>    1.1971    0.0000 </r>
       <r>    1.3507    0.0000 </r>
       <r>    1.8207    0.0000 </r>
       <r>    1.9910    0.0000 </r>
       <r>    2.1524    0.0000 </r>
       <r>    2.4681    0.0000 </r>
      </set>
      <set comment="kpoint 26">
       <r>  -11.0128    1.0000 </r>
       <r>  -10.5254    1.0000 </r>
       <r>  -10.3654    1.0000 </r>
       <r>  -10.0737    1.0000 </r>
       <r>   -4.5598    1.0000 </r>
       <r>   -4.3229    1.0000 </r>
       <r>   -4.2580    1.0000 </r>
       <r>   -3.5704    1.0000 </r>
       <r>   -3.2160    1.0000 </r>
       <r>   -3.2096    1.0000 </r>
       <r>   -2.7939    1.0000 </r>
       <r>   -2.7452    1.0000 </r>
       <r>   -2.5779    1.0000 </r>
       <r>   -1.8141    1.0000 </r>
       <r>   -1.5485    1.0000 </r>
       <r>   -1.0515    1.0000 </r>
       <r>   -0.3727    0.9999 </r>
       <r>   -0.0617    0.9758 </r>
       <r>    1.2965    0.0000 </r>
       <r>    1.3693    0.0000 </r>
       <r>    1.7419    0.0000 </r>
       <r>    2.0692    0.0000 </r>
       <r>    2.2216    0.0000 </r>
       <r>    2.2819    0.0000 </r>
      </set>
      <set comment="kpoint 27">
       <r>  -10.7386    1.0000 </r>
       <r>  -10.5145    1.0000 </r>
       <r>  -10.3341    1.0000 </r>
       <r>  -10.1783    1.0000 </r>
       <r>   -4.5903    1.0000 </r>
       <r>   -4.4786    1.0000 </r>
       <r>   -4.1746    1.0000 </r>
       <r>   -3.9180    1.0000 </r>
       <r>   -3.0934    1.0000 </r>
       <r>   -3.0629    1.0000 </r>
       <r>   -2.7486    1.0000 </r>
       <r>   -2.6837    1.0000 </r>
       <r>   -2.5410    1.0000 </r>
       <r>   -2.1884    1.0000 </r>
       <r>   -1.4176    1.0000 </r>
       <r>   -1.2404    1.0000 </r>
       <r>   -0.2900    0.9994 </r>
       <r>   -0.1839    0.9967 </r>
       <r>    1.4376    0.0000 </r>
       <r>    1.4925    0.0000 </r>
       <r>    1.7326    0.0000 </r>
       <r>    1.9725    0.0000 </r>
       <r>    2.1645    0.0000 </r>
       <r>    2.2280    0.0000 </r>
      </set>
      <set comment="kpoint 28">
       <r>  -10.7386    1.0000 </r>
       <r>  -10.5145    1.0000 </r>
       <r>  -10.3341    1.0000 </r>
       <r>  -10.1783    1.0000 </r>
       <r>   -4.5903    1.0000 </r>
       <r>   -4.4786    1.0000 </r>
       <r>   -4.1746    1.0000 </r>
       <r>   -3.9180    1.0000 </r>
       <r>   -3.0934    1.0000 </r>
       <r>   -3.0629    1.0000 </r>
       <r>   -2.7486    1.0000 </r>
       <r>   -2.6837    1.0000 </r>
       <r>   -2.5410    1.0000 </r>
       <r>   -2.1884    1.0000 </r>
       <r>   -1.4176    1.0000 </r>
       <r>   -1.2404    1.0000 </r>
       <r>   -0.2900    0.9994 </r>
       <r>   -0.1839    0.9967 </r>
       <r>    1.4376    0.0000 </r>
       <r>    1.4925    0.0000 </r>
       <r>    1.7326    0.0000 </r>
       <r>    1.9725    0.0000 </r>
       <r>    2.1645    0.0000 </r>
       <r>    2.2280    0.0000 </r>
      </set>
      <set comment="kpoint 29">
       <r>  -11.0128    1.0000 </r>
       <r>  -10.5254    1.0000 </r>
       <r>  -10.3654    1.0000 </r>
       <r>  -10.0737    1.0000 </r>
       <r>   -4.5598    1.0000 </r>
       <r>   -4.3229    1.0000 </r>
       <r>   -4.2580    1.0000 </r>
       <r>   -3.5704    1.0000 </r>
       <r>   -3.2160    1.0000 </r>
       <r>   -3.2096    1.0000 </r>
       <r>   -2.7939    1.0000 </r>
       <r>   -2.7452    1.0000 </r>
       <r>   -2.5779    1.0000 </r>
       <r>   -1.8141    1.0000 </r>
       <r>   -1.5485    1.0000 </r>
       <r>   -1.0515    1.0000 </r>
       <r>   -0.3727    0.9999 </r>
       <r>   -0.0617    0.9758 </r>
       <r>    1.2965    0.0000 </r>
       <r>    1.3693    0.0000 </r>
       <r>    1.7419    0.0000 </r>
       <r>    2.0692    0.0000 </r>
       <r>    2.2216    0.0000 </r>
       <r>    2.2819    0.0000 </r>
      </set>
      <set comment="kpoint 30">
       <r>  -11.3076    1.0000 </r>
       <r>  -10.7332    1.0000 </r>
       <r>  -10.3004    1.0000 </r>
       <r>  -10.0267    1.0000 </r>
       <r>   -4.4248    1.0000 </r>
       <r>   -4.3717    1.0000 </r>
       <r>   -4.0359    1.0000 </r>
       <r>   -3.4565    1.0000 </r>
       <r>   -3.2975    1.0000 </r>
       <r>   -3.1753    1.0000 </r>
       <r>   -2.8292    1.0000 </r>
       <r>   -2.8093    1.0000 </r>
       <r>   -2.4039    1.0000 </r>
       <r>   -1.6080    1.0000 </r>
       <r>   -1.4789    1.0000 </r>
       <r>   -0.8815    1.0000 </r>
       <r>   -0.4687    1.0000 </r>
       <r>    0.0182    0.9148 </r>
       <r>    1.1971    0.0000 </r>
       <r>    1.3507    0.0000 </r>
       <r>    1.8207    0.0000 </r>
       <r>    1.9910    0.0000 </r>
       <r>    2.1524    0.0000 </r>
       <r>    2.4681    0.0000 </r>
      </set>
      <set comment="kpoint 31">
       <r>  -11.5972    1.0000 </r>
       <r>  -10.9392    1.0000 </r>
       <r>  -10.3084    1.0000 </r>
       <r>  -10.0317    1.0000 </r>
       <r>   -4.3838    1.0000 </r>
       <r>   -4.3554    1.0000 </r>
       <r>   -4.0307    1.0000 </r>
       <r>   -3.4701    1.0000 </r>
       <r>   -3.1435    1.0000 </r>
       <r>   -2.8403    1.0000 </r>
       <r>   -2.8325    1.0000 </r>
       <r>   -2.8022    1.0000 </r>
       <r>   -2.1272    1.0000 </r>
       <r>   -1.5978    1.0000 </r>
       <r>   -1.2371    1.0000 </r>
       <r>   -0.7517    1.0000 </r>
       <r>   -0.5682    1.0000 </r>
       <r>    0.0077    0.9274 </r>
       <r>    1.2052    0.0000 </r>
       <r>    1.4757    0.0000 </r>
       <r>    1.9766    0.0000 </r>
       <r>    1.9841    0.0000 </r>
       <r>    2.0785    0.0000 </r>
       <r>    2.4484    0.0000 </r>
      </set>
      <set comment="kpoint 32">
       <r>  -11.8617    1.0000 </r>
       <r>  -11.1292    1.0000 </r>
       <r>  -10.3648    1.0000 </r>
       <r>  -10.0731    1.0000 </r>
       <r>   -4.5602    1.0000 </r>
       <r>   -4.3235    1.0000 </r>
       <r>   -4.2112    1.0000 </r>
       <r>   -3.2157    1.0000 </r>
       <r>   -2.7945    1.0000 </r>
       <r>   -2.7871    1.0000 </r>
       <r>   -2.7454    1.0000 </r>
       <r>   -2.4973    1.0000 </r>
       <r>   -1.7569    1.0000 </r>
       <r>   -1.5481    1.0000 </r>
       <r>   -1.1812    1.0000 </r>
       <r>   -0.6726    1.0000 </r>
       <r>   -0.5701    1.0000 </r>
       <r>   -0.0621    0.9760 </r>
       <r>    1.2971    0.0000 </r>
       <r>    1.6868    0.0000 </r>
       <r>    2.0689    0.0000 </r>
       <r>    2.0696    0.0000 </r>
       <r>    2.2748    0.0000 </r>
       <r>    2.2827    0.0000 </r>
      </set>
      <set comment="kpoint 33">
       <r>  -12.0869    1.0000 </r>
       <r>  -11.2920    1.0000 </r>
       <r>  -10.4426    1.0000 </r>
       <r>  -10.1320    1.0000 </r>
       <r>   -4.7878    1.0000 </r>
       <r>   -4.4212    1.0000 </r>
       <r>   -4.3131    1.0000 </r>
       <r>   -3.1296    1.0000 </r>
       <r>   -2.6741    1.0000 </r>
       <r>   -2.3977    1.0000 </r>
       <r>   -2.3095    1.0000 </r>
       <r>   -2.2392    1.0000 </r>
       <r>   -1.4987    1.0000 </r>
       <r>   -1.3864    1.0000 </r>
       <r>   -1.2805    1.0000 </r>
       <r>   -0.6451    1.0000 </r>
       <r>   -0.4881    1.0000 </r>
       <r>   -0.1301    0.9921 </r>
       <r>    1.4056    0.0000 </r>
       <r>    1.9967    0.0000 </r>
       <r>    2.0703    0.0000 </r>
       <r>    2.1819    0.0000 </r>
       <r>    2.3006    0.0000 </r>
       <r>    2.6331    0.0000 </r>
      </set>
      <set comment="kpoint 34">
       <r>  -12.2630    1.0000 </r>
       <r>  -11.4199    1.0000 </r>
       <r>  -10.5192    1.0000 </r>
       <r>  -10.1913    1.0000 </r>
       <r>   -4.9832    1.0000 </r>
       <r>   -4.6031    1.0000 </r>
       <r>   -4.3284    1.0000 </r>
       <r>   -3.1606    1.0000 </r>
       <r>   -2.5008    1.0000 </r>
       <r>   -2.0514    1.0000 </r>
       <r>   -2.0069    1.0000 </r>
       <r>   -1.7064    1.0000 </r>
       <r>   -1.4783    1.0000 </r>
       <r>   -1.4070    1.0000 </r>
       <r>   -1.1047    1.0000 </r>
       <r>   -0.6632    1.0000 </r>
       <r>   -0.4252    0.9999 </r>
       <r>   -0.1719    0.9960 </r>
       <r>    1.4802    0.0000 </r>
       <r>    1.8848    0.0000 </r>
       <r>    2.4135    0.0000 </r>
       <r>    2.4333    0.0000 </r>
       <r>    2.6758    0.0000 </r>
       <r>    2.9668    0.0000 </r>
      </set>
      <set comment="kpoint 35">
       <r>  -12.3837    1.0000 </r>
       <r>  -11.5078    1.0000 </r>
       <r>  -10.5785    1.0000 </r>
       <r>  -10.2378    1.0000 </r>
       <r>   -5.1213    1.0000 </r>
       <r>   -4.7338    1.0000 </r>
       <r>   -4.3528    1.0000 </r>
       <r>   -3.2019    1.0000 </r>
       <r>   -2.3244    1.0000 </r>
       <r>   -1.8109    1.0000 </r>
       <r>   -1.7931    1.0000 </r>
       <r>   -1.5055    1.0000 </r>
       <r>   -1.4923    1.0000 </r>
       <r>   -1.1400    1.0000 </r>
       <r>   -0.9367    1.0000 </r>
       <r>   -0.7134    1.0000 </r>
       <r>   -0.3983    0.9999 </r>
       <r>   -0.2015    0.9976 </r>
       <r>    1.4912    0.0000 </r>
       <r>    1.7817    0.0000 </r>
       <r>    2.7598    0.0000 </r>
       <r>    2.8685    0.0000 </r>
       <r>    3.1288    0.0000 </r>
       <r>    3.2235    0.0000 </r>
      </set>
      <set comment="kpoint 36">
       <r>  -12.4450    1.0000 </r>
       <r>  -11.5525    1.0000 </r>
       <r>  -10.6105    1.0000 </r>
       <r>  -10.2632    1.0000 </r>
       <r>   -5.1923    1.0000 </r>
       <r>   -4.8016    1.0000 </r>
       <r>   -4.3693    1.0000 </r>
       <r>   -3.2272    1.0000 </r>
       <r>   -2.2072    1.0000 </r>
       <r>   -1.6894    1.0000 </r>
       <r>   -1.6544    1.0000 </r>
       <r>   -1.5583    1.0000 </r>
       <r>   -1.5185    1.0000 </r>
       <r>   -0.8575    1.0000 </r>
       <r>   -0.7670    1.0000 </r>
       <r>   -0.7594    1.0000 </r>
       <r>   -0.3910    0.9999 </r>
       <r>   -0.2456    0.9988 </r>
       <r>    1.4702    0.0000 </r>
       <r>    1.7526    0.0000 </r>
       <r>    3.0051    0.0000 </r>
       <r>    3.1837    0.0000 </r>
       <r>    3.2014    0.0000 </r>
       <r>    3.3095    0.0000 </r>
      </set>
      <set comment="kpoint 37">
       <r>  -12.4040    1.0000 </r>
       <r>  -11.5226    1.0000 </r>
       <r>  -10.6960    1.0000 </r>
       <r>  -10.3191    1.0000 </r>
       <r>   -5.0623    1.0000 </r>
       <r>   -4.7562    1.0000 </r>
       <r>   -4.2588    1.0000 </r>
       <r>   -3.2442    1.0000 </r>
       <r>   -2.1775    1.0000 </r>
       <r>   -1.7721    1.0000 </r>
       <r>   -1.7462    1.0000 </r>
       <r>   -1.5244    1.0000 </r>
       <r>   -1.4974    1.0000 </r>
       <r>   -0.9171    1.0000 </r>
       <r>   -0.8109    1.0000 </r>
       <r>   -0.7218    1.0000 </r>
       <r>   -0.3954    0.9999 </r>
       <r>   -0.2915    0.9995 </r>
       <r>    1.5040    0.0000 </r>
       <r>    1.7074    0.0000 </r>
       <r>    2.8338    0.0000 </r>
       <r>    2.9732    0.0000 </r>
       <r>    3.2172    0.0000 </r>
       <r>    3.2234    0.0000 </r>
      </set>
      <set comment="kpoint 38">
       <r>  -12.3432    1.0000 </r>
       <r>  -11.4783    1.0000 </r>
       <r>  -10.6618    1.0000 </r>
       <r>  -10.2927    1.0000 </r>
[...]
       <r>    2.2890    0.0000 </r>
      </set>
      <set comment="kpoint 159">
       <r>  -11.4638    1.0000 </r>
       <r>  -11.3215    1.0000 </r>
       <r>  -10.8437    1.0000 </r>
       <r>  -10.7424    1.0000 </r>
       <r>   -4.0067    1.0000 </r>
       <r>   -3.9896    1.0000 </r>
       <r>   -3.2711    1.0000 </r>
       <r>   -3.2376    1.0000 </r>
       <r>   -3.0988    1.0000 </r>
       <r>   -2.9329    1.0000 </r>
       <r>   -2.4814    1.0000 </r>
       <r>   -2.3288    1.0000 </r>
       <r>   -1.5444    1.0000 </r>
       <r>   -1.3746    1.0000 </r>
       <r>   -0.8220    1.0000 </r>
       <r>   -0.7692    1.0000 </r>
       <r>   -0.5170    1.0000 </r>
       <r>   -0.4635    1.0000 </r>
       <r>    1.3309    0.0000 </r>
       <r>    1.3902    0.0000 </r>
       <r>    1.8231    0.0000 </r>
       <r>    1.8863    0.0000 </r>
       <r>    2.0652    0.0000 </r>
       <r>    2.0740    0.0000 </r>
      </set>
      <set comment="kpoint 160">
       <r>  -11.6134    1.0000 </r>
       <r>  -11.4637    1.0000 </r>
       <r>  -10.9505    1.0000 </r>
       <r>  -10.8436    1.0000 </r>
       <r>   -4.0317    1.0000 </r>
       <r>   -3.9895    1.0000 </r>
       <r>   -3.2371    1.0000 </r>
       <r>   -3.1004    1.0000 </r>
       <r>   -2.9323    1.0000 </r>
       <r>   -2.7199    1.0000 </r>
       <r>   -2.3295    1.0000 </r>
       <r>   -2.2092    1.0000 </r>
       <r>   -1.3751    1.0000 </r>
       <r>   -1.2851    1.0000 </r>
       <r>   -0.7693    1.0000 </r>
       <r>   -0.6788    1.0000 </r>
       <r>   -0.5528    1.0000 </r>
       <r>   -0.5169    1.0000 </r>
       <r>    1.3902    0.0000 </r>
       <r>    1.4705    0.0000 </r>
       <r>    1.8859    0.0000 </r>
       <r>    1.9751    0.0000 </r>
       <r>    2.0095    0.0000 </r>
       <r>    2.0651    0.0000 </r>
      </set>
      <set comment="kpoint 161">
       <r>  -11.7179    1.0000 </r>
       <r>  -11.5637    1.0000 </r>
       <r>  -11.0257    1.0000 </r>
       <r>  -10.9155    1.0000 </r>
       <r>   -4.1030    1.0000 </r>
       <r>   -4.0315    1.0000 </r>
       <r>   -3.2160    1.0000 </r>
       <r>   -3.0134    1.0000 </r>
       <r>   -2.9210    1.0000 </r>
       <r>   -2.6937    1.0000 </r>
       <r>   -2.0149    1.0000 </r>
       <r>   -1.9005    1.0000 </r>
       <r>   -1.1499    1.0000 </r>
       <r>   -1.1476    1.0000 </r>
       <r>   -0.8790    1.0000 </r>
       <r>   -0.7660    1.0000 </r>
       <r>   -0.6031    1.0000 </r>
       <r>   -0.6007    1.0000 </r>
       <r>    1.4851    0.0000 </r>
       <r>    1.5651    0.0000 </r>
       <r>    1.9959    0.0000 </r>
       <r>    2.1068    0.0000 </r>
       <r>    2.1243    0.0000 </r>
       <r>    2.1932    0.0000 </r>
      </set>
      <set comment="kpoint 162">
       <r>  -11.7715    1.0000 </r>
       <r>  -11.6152    1.0000 </r>
       <r>  -11.0645    1.0000 </r>
       <r>  -10.9527    1.0000 </r>
       <r>   -4.1482    1.0000 </r>
       <r>   -4.0657    1.0000 </r>
       <r>   -3.2094    1.0000 </r>
       <r>   -2.9778    1.0000 </r>
       <r>   -2.9355    1.0000 </r>
       <r>   -2.7054    1.0000 </r>
       <r>   -1.7220    1.0000 </r>
       <r>   -1.6051    1.0000 </r>
       <r>   -1.0678    1.0000 </r>
       <r>   -1.0387    1.0000 </r>
       <r>   -0.9503    1.0000 </r>
       <r>   -0.9485    1.0000 </r>
       <r>   -0.7150    1.0000 </r>
       <r>   -0.6547    1.0000 </r>
       <r>    1.5392    0.0000 </r>
       <r>    1.6119    0.0000 </r>
       <r>    2.1180    0.0000 </r>
       <r>    2.2197    0.0000 </r>
       <r>    2.2762    0.0000 </r>
       <r>    2.3165    0.0000 </r>
      </set>
     </set>
    </set>
   </array>
  </eigenvalues>
  <separator name="orbital magnetization" >
   <v name="MAGDIPOLOUT">      0.00000000      0.00000000      0.00000000</v>
  </separator>
  <dos>
   <i name="efermi">      0.16145696 </i>
   <total>
    <array>
     <dimension dim="1">gridpoints</dimension>
     <dimension dim="2">spin</dimension>
     <field>energy</field>
     <field>total</field>
     <field>integrated</field>
     <set>
      <set comment="spin 1">
       <r>   -13.2581     0.0000     0.0000 </r>
       <r>   -13.1999     0.0000     0.0000 </r>
       <r>   -13.1418     0.0000     0.0000 </r>
       <r>   -13.0837     0.0000     0.0000 </r>
       <r>   -13.0256     0.0000     0.0000 </r>
       <r>   -12.9675     0.0002     0.0000 </r>
       <r>   -12.9093     0.0006     0.0000 </r>
       <r>   -12.8512     0.0014     0.0001 </r>
       <r>   -12.7931     0.0037     0.0003 </r>
       <r>   -12.7350     0.0095     0.0009 </r>
       <r>   -12.6769     0.0245     0.0023 </r>
       <r>   -12.6187     0.0620     0.0059 </r>
       <r>   -12.5606     0.1479     0.0145 </r>
       <r>   -12.5025     0.3158     0.0329 </r>
       <r>   -12.4444     0.5611     0.0655 </r>
       <r>   -12.3863     0.8046     0.1122 </r>
       <r>   -12.3281     0.9712     0.1687 </r>
       <r>   -12.2700     1.0651     0.2306 </r>
       <r>   -12.2119     1.1072     0.2949 </r>
       <r>   -12.1538     1.1273     0.3605 </r>
       <r>   -12.0957     1.1604     0.4279 </r>
       <r>   -12.0376     1.1805     0.4965 </r>
       <r>   -11.9794     1.1722     0.5647 </r>
       <r>   -11.9213     1.1878     0.6337 </r>
       <r>   -11.8632     1.2438     0.7060 </r>
       <r>   -11.8051     1.2823     0.7806 </r>
       <r>   -11.7470     1.2999     0.8562 </r>
       <r>   -11.6888     1.3750     0.9361 </r>
       <r>   -11.6307     1.5981     1.0290 </r>
       <r>   -11.5726     1.9659     1.1433 </r>
       <r>   -11.5145     2.3315     1.2788 </r>
       <r>   -11.4564     2.6070     1.4304 </r>
       <r>   -11.3982     2.7996     1.5931 </r>
       <r>   -11.3401     2.9668     1.7656 </r>
       <r>   -11.2820     3.1316     1.9477 </r>
       <r>   -11.2239     3.2066     2.1341 </r>
       <r>   -11.1658     3.2345     2.3221 </r>
       <r>   -11.1076     3.3190     2.5151 </r>
       <r>   -11.0495     3.4608     2.7163 </r>
       <r>   -10.9914     3.6501     2.9285 </r>
       <r>   -10.9333     3.8304     3.1512 </r>
       <r>   -10.8752     3.9646     3.3817 </r>
       <r>   -10.8170     4.1541     3.6233 </r>
       <r>   -10.7589     4.5241     3.8863 </r>
       <r>   -10.7008     5.0213     4.1782 </r>
       <r>   -10.6427     5.4757     4.4966 </r>
       <r>   -10.5846     5.9078     4.8400 </r>
       <r>   -10.5264     6.2670     5.2044 </r>
       <r>   -10.4683     6.3389     5.5730 </r>
       <r>   -10.4102     6.1878     5.9327 </r>
       <r>   -10.3521     6.1032     6.2876 </r>
       <r>   -10.2940     6.0455     6.6391 </r>
       <r>   -10.2358     5.7731     6.9748 </r>
       <r>   -10.1777     5.1922     7.2767 </r>
       <r>   -10.1196     4.3382     7.5291 </r>
       <r>   -10.0615     3.3423     7.7235 </r>
       <r>   -10.0034     2.2979     7.8574 </r>
       <r>    -9.9452     1.3361     7.9352 </r>
       <r>    -9.8871     0.6501     7.9731 </r>
       <r>    -9.8290     0.2765     7.9895 </r>
       <r>    -9.7709     0.1094     7.9960 </r>
       <r>    -9.7128     0.0406     7.9985 </r>
       <r>    -9.6547     0.0143     7.9995 </r>
       <r>    -9.5965     0.0042     7.9998 </r>
       <r>    -9.5384     0.0005     8.0000 </r>
       <r>    -9.4803     0.0000     8.0000 </r>
       <r>    -9.4222     0.0000     8.0000 </r>
       <r>    -9.3641     0.0000     8.0000 </r>
       <r>    -9.3059     0.0000     8.0000 </r>
       <r>    -9.2478     0.0000     8.0000 </r>
       <r>    -9.1897     0.0000     8.0000 </r>
       <r>    -9.1316     0.0000     8.0000 </r>
       <r>    -9.0735     0.0000     8.0000 </r>
       <r>    -9.0153     0.0000     8.0000 </r>
       <r>    -8.9572     0.0000     8.0000 </r>
       <r>    -8.8991     0.0000     8.0000 </r>
       <r>    -8.8410     0.0000     8.0000 </r>
       <r>    -8.7829     0.0000     8.0000 </r>
       <r>    -8.7247     0.0000     8.0000 </r>
       <r>    -8.6666     0.0000     8.0000 </r>
       <r>    -8.6085     0.0000     8.0000 </r>
       <r>    -8.5504     0.0000     8.0000 </r>
       <r>    -8.4923     0.0000     8.0000 </r>
       <r>    -8.4341     0.0000     8.0000 </r>
       <r>    -8.3760     0.0000     8.0000 </r>
       <r>    -8.3179     0.0000     8.0000 </r>
       <r>    -8.2598     0.0000     8.0000 </r>
       <r>    -8.2017     0.0000     8.0000 </r>
       <r>    -8.1435     0.0000     8.0000 </r>
       <r>    -8.0854     0.0000     8.0000 </r>
       <r>    -8.0273     0.0000     8.0000 </r>
       <r>    -7.9692     0.0000     8.0000 </r>
       <r>    -7.9111     0.0000     8.0000 </r>
       <r>    -7.8529     0.0000     8.0000 </r>
       <r>    -7.7948     0.0000     8.0000 </r>
       <r>    -7.7367     0.0000     8.0000 </r>
       <r>    -7.6786     0.0000     8.0000 </r>
       <r>    -7.6205     0.0000     8.0000 </r>
       <r>    -7.5624     0.0000     8.0000 </r>
       <r>    -7.5042     0.0000     8.0000 </r>
       <r>    -7.4461     0.0000     8.0000 </r>
       <r>    -7.3880     0.0000     8.0000 </r>
       <r>    -7.3299     0.0000     8.0000 </r>
       <r>    -7.2718     0.0000     8.0000 </r>
       <r>    -7.2136     0.0000     8.0000 </r>
       <r>    -7.1555     0.0000     8.0000 </r>
       <r>    -7.0974     0.0000     8.0000 </r>
       <r>    -7.0393     0.0000     8.0000 </r>
       <r>    -6.9812     0.0000     8.0000 </r>
       <r>    -6.9230     0.0000     8.0000 </r>
       <r>    -6.8649     0.0000     8.0000 </r>
       <r>    -6.8068     0.0000     8.0000 </r>
       <r>    -6.7487     0.0000     8.0000 </r>
       <r>    -6.6906     0.0000     8.0000 </r>
       <r>    -6.6324     0.0000     8.0000 </r>
       <r>    -6.5743     0.0000     8.0000 </r>
       <r>    -6.5162     0.0000     8.0000 </r>
       <r>    -6.4581     0.0000     8.0000 </r>
       <r>    -6.4000     0.0000     8.0000 </r>
       <r>    -6.3418     0.0000     8.0000 </r>
       <r>    -6.2837     0.0000     8.0000 </r>
       <r>    -6.2256     0.0000     8.0000 </r>
       <r>    -6.1675     0.0000     8.0000 </r>
       <r>    -6.1094     0.0000     8.0000 </r>
       <r>    -6.0512     0.0000     8.0000 </r>
       <r>    -5.9931     0.0000     8.0000 </r>
       <r>    -5.9350     0.0000     8.0000 </r>
       <r>    -5.8769     0.0000     8.0000 </r>
       <r>    -5.8188     0.0000     8.0000 </r>
       <r>    -5.7606     0.0004     8.0000 </r>
       <r>    -5.7025     0.0009     8.0001 </r>
       <r>    -5.6444     0.0024     8.0002 </r>
       <r>    -5.5863     0.0064     8.0006 </r>
       <r>    -5.5282     0.0167     8.0016 </r>
       <r>    -5.4700     0.0430     8.0041 </r>
       <r>    -5.4119     0.1077     8.0103 </r>
       <r>    -5.3538     0.2549     8.0251 </r>
       <r>    -5.2957     0.5309     8.0560 </r>
       <r>    -5.2376     0.9106     8.1089 </r>
       <r>    -5.1795     1.2716     8.1828 </r>
       <r>    -5.1213     1.5403     8.2723 </r>
       <r>    -5.0632     1.7113     8.3718 </r>
       <r>    -5.0051     1.7947     8.4761 </r>
       <r>    -4.9470     1.8825     8.5855 </r>
       <r>    -4.8889     2.1167     8.7085 </r>
       <r>    -4.8307     2.4901     8.8533 </r>
       <r>    -4.7726     2.8153     9.0169 </r>
       <r>    -4.7145     3.0781     9.1958 </r>
       <r>    -4.6564     3.4126     9.3942 </r>
       <r>    -4.5983     3.9209     9.6222 </r>
       <r>    -4.5401     4.5430     9.8863 </r>
       <r>    -4.4820     5.2668    10.1924 </r>
       <r>    -4.4239     6.2586    10.5562 </r>
       <r>    -4.3658     7.2665    10.9787 </r>
       <r>    -4.3077     7.6575    11.4238 </r>
       <r>    -4.2495     7.3526    11.8512 </r>
       <r>    -4.1914     6.8418    12.2490 </r>
       <r>    -4.1333     6.3778    12.6197 </r>
       <r>    -4.0752     5.9366    12.9650 </r>
       <r>    -4.0171     5.2594    13.2707 </r>
       <r>    -3.9589     4.1944    13.5146 </r>
       <r>    -3.9008     3.0960    13.6948 </r>
       <r>    -3.8427     2.2632    13.8267 </r>
       <r>    -3.7846     1.7348    13.9277 </r>
       <r>    -3.7265     1.5321    14.0170 </r>
       <r>    -3.6683     1.5600    14.1079 </r>
       <r>    -3.6102     1.6609    14.2046 </r>
       <r>    -3.5521     1.8425    14.3119 </r>
       <r>    -3.4940     2.2767    14.4444 </r>
       <r>    -3.4359     3.1803    14.6293 </r>
       <r>    -3.3777     4.6321    14.8986 </r>
       <r>    -3.3196     6.5014    15.2765 </r>
       <r>    -3.2615     8.4052    15.7650 </r>
       <r>    -3.2034     9.6102    16.3236 </r>
       <r>    -3.1453     9.4197    16.8711 </r>
       <r>    -3.0872     7.9118    17.3310 </r>
       <r>    -3.0290     5.9664    17.6778 </r>
       <r>    -2.9709     4.5166    17.9404 </r>
       <r>    -2.9128     4.0019    18.1731 </r>
       <r>    -2.8547     4.4102    18.4296 </r>
       <r>    -2.7966     5.3495    18.7407 </r>
       <r>    -2.7384     6.1016    19.0957 </r>
       <r>    -2.6803     6.2007    19.4566 </r>
       <r>    -2.6222     5.8292    19.7957 </r>
       <r>    -2.5641     5.5373    20.1177 </r>
       <r>    -2.5060     5.4900    20.4368 </r>
       <r>    -2.4478     5.4665    20.7547 </r>
       <r>    -2.3897     5.4927    21.0739 </r>
       <r>    -2.3316     5.7746    21.4098 </r>
       <r>    -2.2735     6.0893    21.7638 </r>
       <r>    -2.2154     6.0575    22.1162 </r>
       <r>    -2.1572     5.6736    22.4461 </r>
       <r>    -2.0991     5.1426    22.7451 </r>
       <r>    -2.0410     4.6949    23.0181 </r>
       <r>    -1.9829     4.3118    23.2690 </r>
       <r>    -1.9248     3.9245    23.4972 </r>
       <r>    -1.8666     3.6803    23.7112 </r>
       <r>    -1.8085     3.7047    23.9268 </r>
       <r>    -1.7504     4.0349    24.1615 </r>
       <r>    -1.6923     4.6195    24.4303 </r>
       <r>    -1.6342     5.4538    24.7474 </r>
       <r>    -1.5760     6.6992    25.1369 </r>
       <r>    -1.5179     8.2097    25.6143 </r>
       <r>    -1.4598     9.2889    26.1542 </r>
       <r>    -1.4017     9.4627    26.7043 </r>
       <r>    -1.3436     8.9829    27.2265 </r>
       <r>    -1.2854     8.5106    27.7212 </r>
       <r>    -1.2273     8.3650    28.2076 </r>
       <r>    -1.1692     8.0991    28.6784 </r>
       <r>    -1.1111     7.4473    29.1114 </r>
       <r>    -1.0530     6.7017    29.5012 </r>
       <r>    -0.9948     6.1609    29.8597 </r>
       <r>    -0.9367     5.8651    30.2009 </r>
       <r>    -0.8786     5.6956    30.5323 </r>
       <r>    -0.8205     5.6522    30.8610 </r>
       <r>    -0.7624     5.8898    31.2034 </r>
       <r>    -0.7043     6.3892    31.5751 </r>
       <r>    -0.6461     6.9196    31.9775 </r>
       <r>    -0.5880     7.2745    32.4004 </r>
       <r>    -0.5299     7.3772    32.8294 </r>
       <r>    -0.4718     7.3054    33.2541 </r>
       <r>    -0.4137     7.1671    33.6709 </r>
       <r>    -0.3555     6.9377    34.0742 </r>
       <r>    -0.2974     6.6203    34.4591 </r>
       <r>    -0.2393     6.3065    34.8259 </r>
       <r>    -0.1812     5.8103    35.1638 </r>
       <r>    -0.1231     4.8839    35.4479 </r>
       <r>    -0.0649     3.6826    35.6622 </r>
       <r>    -0.0068     2.5435    35.8102 </r>
       <r>     0.0513     1.6080    35.9039 </r>
       <r>     0.1094     0.8999    35.9565 </r>
       <r>     0.1675     0.4349    35.9819 </r>
       <r>     0.2257     0.1858    35.9929 </r>
       <r>     0.2838     0.0724    35.9973 </r>
       <r>     0.3419     0.0260    35.9991 </r>
       <r>     0.4000     0.0091    35.9997 </r>
       <r>     0.4581     0.0023    35.9999 </r>
       <r>     0.5163     0.0006    36.0000 </r>
       <r>     0.5744     0.0000    36.0000 </r>
       <r>     0.6325     0.0001    36.0000 </r>
       <r>     0.6906     0.0004    36.0000 </r>
       <r>     0.7487     0.0012    36.0001 </r>
       <r>     0.8069     0.0034    36.0003 </r>
       <r>     0.8650     0.0101    36.0009 </r>
       <r>     0.9231     0.0261    36.0024 </r>
       <r>     0.9812     0.0699    36.0065 </r>
       <r>     1.0393     0.1705    36.0164 </r>
       <r>     1.0975     0.3965    36.0394 </r>
       <r>     1.1556     0.8307    36.0877 </r>
       <r>     1.2137     1.5555    36.1781 </r>
       <r>     1.2718     2.7111    36.3357 </r>
       <r>     1.3299     4.4741    36.5957 </r>
       <r>     1.3880     6.7923    36.9905 </r>
       <r>     1.4462     9.1786    37.5239 </r>
       <r>     1.5043    10.4847    38.1333 </r>
       <r>     1.5624     9.8266    38.7044 </r>
       <r>     1.6205     8.4105    39.1932 </r>
       <r>     1.6786     8.0633    39.6619 </r>
       <r>     1.7368     8.6472    40.1645 </r>
       <r>     1.7949     8.7366    40.6723 </r>
       <r>     1.8530     7.9616    41.1353 </r>
       <r>     1.9111     7.1725    41.5523 </r>
       <r>     1.9692     7.0530    41.9628 </r>
       <r>     2.0274     7.4798    42.3980 </r>
       <r>     2.0855     8.0167    42.8641 </r>
       <r>     2.1436     8.3814    43.3513 </r>
       <r>     2.2017     8.3582    43.8373 </r>
       <r>     2.2598     7.9476    44.2996 </r>
       <r>     2.3180     7.1945    44.7181 </r>
       <r>     2.3761     6.1402    45.0751 </r>
       <r>     2.4342     5.2314    45.3793 </r>
       <r>     2.4923     4.6398    45.6493 </r>
       <r>     2.5504     4.1779    45.8923 </r>
       <r>     2.6086     3.8561    46.1167 </r>
       <r>     2.6667     3.5327    46.3224 </r>
       <r>     2.7248     3.0925    46.5023 </r>
       <r>     2.7829     2.7325    46.6614 </r>
       <r>     2.8410     2.5428    46.8094 </r>
       <r>     2.8992     2.4878    46.9541 </r>
       <r>     2.9573     2.4863    47.0989 </r>
       <r>     3.0154     2.3637    47.2363 </r>
       <r>     3.0735     2.1803    47.3631 </r>
       <r>     3.1316     2.1352    47.4874 </r>
       <r>     3.1898     2.1609    47.6131 </r>
       <r>     3.2479     2.0206    47.7306 </r>
       <r>     3.3060     1.6691    47.8277 </r>
       <r>     3.3641     1.2647    47.9012 </r>
       <r>     3.4222     0.8508    47.9508 </r>
       <r>     3.4804     0.4728    47.9784 </r>
       <r>     3.5385     0.2200    47.9912 </r>
       <r>     3.5966     0.0914    47.9966 </r>
       <r>     3.6547     0.0354    47.9987 </r>
       <r>     3.7128     0.0119    47.9996 </r>
       <r>     3.7709     0.0045    47.9998 </r>
       <r>     3.8291     0.0011    48.0000 </r>
       <r>     3.8872     0.0000    48.0000 </r>
       <r>     3.9453     0.0000    48.0000 </r>
       <r>     4.0034     0.0000    48.0000 </r>
       <r>     4.0615     0.0000    48.0000 </r>
       <r>     4.1197     0.0000    48.0000 </r>
       <r>     4.1778     0.0000    48.0000 </r>
      </set>
     </set>
    </array>
   </total>
  </dos>
 </calculation>
 <structure name="finalpos" >
  <crystal>
   <varray name="basis" >
    <v>       3.55100000       0.00000000       0.00000000 </v>
    <v>       0.00000000       6.14900000       0.00000000 </v>
    <v>       0.00000000       0.00000000      16.00000000 </v>
   </varray>
   <i name="volume">    349.36158400 </i>
   <varray name="rec_basis" >
    <v>       0.28161081       0.00000000       0.00000000 </v>
    <v>       0.00000000       0.16262807       0.00000000 </v>
    <v>       0.00000000       0.00000000       0.06250000 </v>
   </varray>
  </crystal>
  <varray name="positions" >
   <v>       0.00000000       0.66665909       0.11287036 </v>
   <v>       0.00000000       0.66665908       0.88712964 </v>
   <v>       0.50000000       0.16665899       0.11286905 </v>
   <v>       0.50000000       0.16665899       0.88713094 </v>
   <v>       0.50000000       0.50001203       0.00000000 </v>
   <v>      -0.00000000       0.00000981       0.00000000 </v>
  </varray>
 </structure>
</modeling>
