  24  24   0   0
  0.5822693E+02  0.7102000E-09  0.1229800E-08  0.1600000E-08  0.5000000E-15
  1.000000000000000E-004
  CAR 
 MoTe2 with Spin orbit Phonon calculatio 
      6.74142394    -13.32180445  301      0.45912555      1.00000000
    -13.322  0.0000E+00  0.0000E+00
    -13.255  0.0000E+00  0.0000E+00
    -13.188  0.0000E+00  0.0000E+00
    -13.121  0.0000E+00  0.0000E+00
    -13.054  0.0000E+00  0.0000E+00
    -12.987  0.0000E+00  0.0000E+00
    -12.921  0.0000E+00  0.0000E+00
    -12.854  0.0000E+00  0.0000E+00
    -12.787  0.0000E+00  0.0000E+00
    -12.720  0.0000E+00  0.0000E+00
    -12.653  0.1628E-11  0.1089E-12
    -12.586  0.1941E-06  0.1298E-07
    -12.519  0.8113E-03  0.5427E-04
    -12.452  0.1477E+00  0.9932E-02
    -12.386  0.1903E+01  0.1372E+00
    -12.319  0.4092E+01  0.4108E+00
    -12.252  0.4431E+01  0.7072E+00
    -12.185  0.4479E+01  0.1007E+01
    -12.118  0.4527E+01  0.1310E+01
    -12.051  0.4631E+01  0.1619E+01
    -11.984  0.4637E+01  0.1929E+01
    -11.917  0.4713E+01  0.2245E+01
    -11.851  0.4862E+01  0.2570E+01
    -11.784  0.4780E+01  0.2889E+01
    -11.717  0.5094E+01  0.3230E+01
    -11.650  0.4910E+01  0.3558E+01
    -11.583  0.5341E+01  0.3916E+01
    -11.516  0.6105E+01  0.4324E+01
    -11.449  0.1005E+02  0.4996E+01
    -11.382  0.1146E+02  0.5763E+01
    -11.315  0.1192E+02  0.6560E+01
    -11.249  0.1219E+02  0.7375E+01
    -11.182  0.1238E+02  0.8204E+01
    -11.115  0.1304E+02  0.9076E+01
    -11.048  0.1305E+02  0.9948E+01
    -10.981  0.1409E+02  0.1089E+02
    -10.914  0.1413E+02  0.1184E+02
    -10.847  0.1527E+02  0.1286E+02
    -10.780  0.1578E+02  0.1391E+02
    -10.714  0.1724E+02  0.1506E+02
    -10.647  0.1830E+02  0.1629E+02
    -10.580  0.2117E+02  0.1770E+02
    -10.513  0.2527E+02  0.1939E+02
    -10.446  0.2811E+02  0.2127E+02
    -10.379  0.2488E+02  0.2294E+02
    -10.312  0.2367E+02  0.2452E+02
    -10.245  0.2454E+02  0.2616E+02
    -10.179  0.2582E+02  0.2789E+02
    -10.112  0.2356E+02  0.2946E+02
    -10.045  0.1710E+02  0.3061E+02
     -9.978  0.1325E+02  0.3149E+02
     -9.911  0.6809E+01  0.3195E+02
     -9.844  0.7468E+00  0.3200E+02
     -9.777  0.6715E-02  0.3200E+02
     -9.710  0.2826E-05  0.3200E+02
     -9.644  0.4322E-10  0.3200E+02
     -9.577  0.0000E+00  0.3200E+02
     -9.510  0.0000E+00  0.3200E+02
     -9.443  0.0000E+00  0.3200E+02
     -9.376  0.0000E+00  0.3200E+02
     -9.309  0.0000E+00  0.3200E+02
     -9.242  0.0000E+00  0.3200E+02
     -9.175  0.0000E+00  0.3200E+02
     -9.109  0.0000E+00  0.3200E+02
     -9.042  0.0000E+00  0.3200E+02
     -8.975  0.0000E+00  0.3200E+02
     -8.908  0.0000E+00  0.3200E+02
     -8.841  0.0000E+00  0.3200E+02
     -8.774  0.0000E+00  0.3200E+02
     -8.707  0.0000E+00  0.3200E+02
     -8.640  0.0000E+00  0.3200E+02
     -8.574  0.0000E+00  0.3200E+02
     -8.507  0.0000E+00  0.3200E+02
     -8.440  0.0000E+00  0.3200E+02
     -8.373  0.0000E+00  0.3200E+02
     -8.306  0.0000E+00  0.3200E+02
     -8.239  0.0000E+00  0.3200E+02
     -8.172  0.0000E+00  0.3200E+02
     -8.105  0.0000E+00  0.3200E+02
     -8.038  0.0000E+00  0.3200E+02
     -7.972  0.0000E+00  0.3200E+02
     -7.905  0.0000E+00  0.3200E+02
     -7.838  0.0000E+00  0.3200E+02
     -7.771  0.0000E+00  0.3200E+02
     -7.704  0.0000E+00  0.3200E+02
     -7.637  0.0000E+00  0.3200E+02
     -7.570  0.0000E+00  0.3200E+02
     -7.503  0.0000E+00  0.3200E+02
     -7.437  0.0000E+00  0.3200E+02
     -7.370  0.0000E+00  0.3200E+02
     -7.303  0.0000E+00  0.3200E+02
     -7.236  0.0000E+00  0.3200E+02
     -7.169  0.0000E+00  0.3200E+02
     -7.102  0.0000E+00  0.3200E+02
     -7.035  0.0000E+00  0.3200E+02
     -6.968  0.0000E+00  0.3200E+02
     -6.902  0.0000E+00  0.3200E+02
     -6.835  0.0000E+00  0.3200E+02
     -6.768  0.0000E+00  0.3200E+02
     -6.701  0.0000E+00  0.3200E+02
     -6.634  0.0000E+00  0.3200E+02
     -6.567  0.0000E+00  0.3200E+02
     -6.500  0.0000E+00  0.3200E+02
     -6.433  0.0000E+00  0.3200E+02
     -6.367  0.0000E+00  0.3200E+02
     -6.300  0.0000E+00  0.3200E+02
     -6.233  0.0000E+00  0.3200E+02
     -6.166  0.0000E+00  0.3200E+02
     -6.099  0.0000E+00  0.3200E+02
     -6.032  0.0000E+00  0.3200E+02
     -5.965  0.0000E+00  0.3200E+02
     -5.898  0.0000E+00  0.3200E+02
     -5.832  0.0000E+00  0.3200E+02
     -5.765  0.0000E+00  0.3200E+02
     -5.698  0.0000E+00  0.3200E+02
     -5.631  0.0000E+00  0.3200E+02
     -5.564  0.0000E+00  0.3200E+02
     -5.497  0.3033E-12  0.3200E+02
     -5.430  0.6294E-07  0.3200E+02
     -5.363  0.4383E-03  0.3200E+02
     -5.297  0.1240E+00  0.3201E+02
     -5.230  0.2256E+01  0.3216E+02
     -5.163  0.5926E+01  0.3256E+02
     -5.096  0.6822E+01  0.3301E+02
     -5.029  0.7002E+01  0.3348E+02
     -4.962  0.7246E+01  0.3396E+02
     -4.895  0.7592E+01  0.3447E+02
     -4.828  0.8058E+01  0.3501E+02
     -4.761  0.1055E+02  0.3572E+02
     -4.695  0.1271E+02  0.3657E+02
     -4.628  0.1392E+02  0.3750E+02
     -4.561  0.1585E+02  0.3856E+02
     -4.494  0.1979E+02  0.3988E+02
     -4.427  0.2744E+02  0.4172E+02
     -4.360  0.3009E+02  0.4373E+02
     -4.293  0.2628E+02  0.4549E+02
     -4.226  0.2602E+02  0.4723E+02
     -4.160  0.2845E+02  0.4913E+02
     -4.093  0.2794E+02  0.5100E+02
     -4.026  0.2942E+02  0.5297E+02
     -3.959  0.2135E+02  0.5439E+02
     -3.892  0.9450E+01  0.5503E+02
     -3.825  0.6621E+01  0.5547E+02
     -3.758  0.6316E+01  0.5589E+02
     -3.691  0.6244E+01  0.5631E+02
     -3.625  0.5923E+01  0.5670E+02
     -3.558  0.6180E+01  0.5712E+02
     -3.491  0.6885E+01  0.5758E+02
     -3.424  0.7959E+01  0.5811E+02
     -3.357  0.1016E+02  0.5879E+02
     -3.290  0.1614E+02  0.5987E+02
     -3.223  0.3115E+02  0.6195E+02
     -3.156  0.5291E+02  0.6549E+02
     -3.090  0.5745E+02  0.6933E+02
     -3.023  0.2980E+02  0.7133E+02
     -2.956  0.1434E+02  0.7229E+02
     -2.889  0.9950E+01  0.7295E+02
     -2.822  0.9305E+01  0.7357E+02
     -2.755  0.1205E+02  0.7438E+02
     -2.688  0.1735E+02  0.7554E+02
     -2.621  0.2216E+02  0.7702E+02
     -2.555  0.2846E+02  0.7893E+02
     -2.488  0.2738E+02  0.8076E+02
     -2.421  0.2396E+02  0.8236E+02
     -2.354  0.2383E+02  0.8395E+02
     -2.287  0.2308E+02  0.8550E+02
     -2.220  0.2296E+02  0.8703E+02
     -2.153  0.2648E+02  0.8880E+02
     -2.086  0.2632E+02  0.9056E+02
     -2.020  0.2036E+02  0.9192E+02
     -1.953  0.1777E+02  0.9311E+02
     -1.886  0.1675E+02  0.9423E+02
     -1.819  0.1655E+02  0.9534E+02
     -1.752  0.1365E+02  0.9625E+02
     -1.685  0.1259E+02  0.9709E+02
     -1.618  0.1343E+02  0.9799E+02
     -1.551  0.2097E+02  0.9940E+02
     -1.484  0.3580E+02  0.1018E+03
     -1.418  0.3977E+02  0.1044E+03
     -1.351  0.4013E+02  0.1071E+03
     -1.284  0.3634E+02  0.1096E+03
     -1.217  0.3537E+02  0.1119E+03
     -1.150  0.3634E+02  0.1144E+03
     -1.083  0.3313E+02  0.1166E+03
     -1.016  0.2096E+02  0.1180E+03
     -0.949  0.1943E+02  0.1193E+03
     -0.883  0.2161E+02  0.1207E+03
     -0.816  0.2296E+02  0.1223E+03
     -0.749  0.2274E+02  0.1238E+03
     -0.682  0.1954E+02  0.1251E+03
     -0.615  0.2123E+02  0.1265E+03
     -0.548  0.2037E+02  0.1279E+03
     -0.481  0.2432E+02  0.1295E+03
     -0.414  0.3134E+02  0.1316E+03
     -0.348  0.3303E+02  0.1338E+03
     -0.281  0.3606E+02  0.1362E+03
     -0.214  0.2829E+02  0.1381E+03
     -0.147  0.2670E+02  0.1399E+03
     -0.080  0.2135E+02  0.1413E+03
     -0.013  0.1706E+02  0.1425E+03
      0.054  0.1157E+02  0.1432E+03
      0.121  0.5754E+01  0.1436E+03
      0.187  0.3485E+01  0.1438E+03
      0.254  0.1949E+01  0.1440E+03
      0.321  0.3493E+00  0.1440E+03
      0.388  0.6694E-02  0.1440E+03
      0.455  0.6762E-05  0.1440E+03
      0.522  0.2534E-09  0.1440E+03
      0.589  0.2869E-15  0.1440E+03
      0.656  0.0000E+00  0.1440E+03
      0.722  0.0000E+00  0.1440E+03
      0.789  0.0000E+00  0.1440E+03
      0.856  0.0000E+00  0.1440E+03
      0.923  0.2695E-14  0.1440E+03
      0.990  0.1324E-08  0.1440E+03
      1.057  0.2120E-04  0.1440E+03
      1.124  0.1333E-01  0.1440E+03
      1.191  0.5326E+00  0.1440E+03
      1.257  0.2920E+01  0.1442E+03
      1.324  0.5371E+01  0.1446E+03
      1.391  0.1162E+02  0.1454E+03
      1.458  0.2487E+02  0.1470E+03
      1.525  0.4554E+02  0.1501E+03
      1.592  0.6554E+02  0.1545E+03
      1.659  0.3108E+02  0.1565E+03
      1.726  0.1647E+02  0.1576E+03
      1.792  0.3671E+02  0.1601E+03
      1.859  0.4602E+02  0.1632E+03
      1.926  0.3229E+02  0.1653E+03
      1.993  0.2384E+02  0.1669E+03
      2.060  0.2541E+02  0.1686E+03
      2.127  0.3037E+02  0.1707E+03
      2.194  0.3609E+02  0.1731E+03
      2.261  0.3799E+02  0.1756E+03
      2.328  0.2978E+02  0.1776E+03
      2.394  0.2578E+02  0.1793E+03
      2.461  0.2436E+02  0.1810E+03
      2.528  0.2070E+02  0.1823E+03
      2.595  0.1728E+02  0.1835E+03
      2.662  0.1663E+02  0.1846E+03
      2.729  0.1322E+02  0.1855E+03
      2.796  0.1243E+02  0.1863E+03
      2.863  0.1234E+02  0.1871E+03
      2.929  0.1019E+02  0.1878E+03
      2.996  0.8597E+01  0.1884E+03
      3.063  0.8355E+01  0.1890E+03
      3.130  0.7980E+01  0.1895E+03
      3.197  0.7178E+01  0.1900E+03
      3.264  0.6341E+01  0.1904E+03
      3.331  0.5993E+01  0.1908E+03
      3.398  0.1064E+02  0.1915E+03
      3.464  0.2081E+02  0.1929E+03
      3.531  0.2945E+02  0.1949E+03
      3.598  0.5884E+02  0.1988E+03
      3.665  0.5233E+02  0.2023E+03
      3.732  0.3180E+02  0.2044E+03
      3.799  0.1848E+02  0.2057E+03
      3.866  0.9093E+01  0.2063E+03
      3.933  0.7130E+01  0.2068E+03
      3.999  0.6387E+01  0.2072E+03
      4.066  0.6050E+01  0.2076E+03
      4.133  0.6558E+01  0.2080E+03
      4.200  0.5781E+01  0.2084E+03
      4.267  0.5178E+01  0.2088E+03
      4.334  0.6811E+01  0.2092E+03
      4.401  0.7225E+01  0.2097E+03
      4.468  0.8466E+01  0.2103E+03
      4.534  0.8804E+01  0.2109E+03
      4.601  0.8808E+01  0.2114E+03
      4.668  0.9768E+01  0.2121E+03
      4.735  0.9831E+01  0.2128E+03
      4.802  0.9491E+01  0.2134E+03
      4.869  0.1149E+02  0.2142E+03
      4.936  0.1335E+02  0.2151E+03
      5.003  0.1419E+02  0.2160E+03
      5.069  0.1566E+02  0.2170E+03
      5.136  0.1537E+02  0.2181E+03
      5.203  0.1252E+02  0.2189E+03
      5.270  0.1208E+02  0.2197E+03
      5.337  0.1159E+02  0.2205E+03
      5.404  0.1155E+02  0.2213E+03
      5.471  0.1165E+02  0.2220E+03
      5.538  0.9411E+01  0.2227E+03
      5.605  0.8544E+01  0.2232E+03
      5.671  0.6359E+01  0.2237E+03
      5.738  0.3576E+01  0.2239E+03
      5.805  0.1077E+01  0.2240E+03
      5.872  0.2194E+00  0.2240E+03
      5.939  0.2285E-01  0.2240E+03
      6.006  0.1843E-03  0.2240E+03
      6.073  0.5679E-07  0.2240E+03
      6.140  0.5583E-12  0.2240E+03
      6.206  0.0000E+00  0.2240E+03
      6.273  0.0000E+00  0.2240E+03
      6.340  0.0000E+00  0.2240E+03
      6.407  0.0000E+00  0.2240E+03
      6.474  0.0000E+00  0.2240E+03
      6.541  0.0000E+00  0.2240E+03
      6.608  0.0000E+00  0.2240E+03
      6.675  0.0000E+00  0.2240E+03
      6.741  0.0000E+00  0.2240E+03
