   24   24    1    1
  0.5822693E+02  0.7102000E-09  0.1229800E-08  0.1600000E-08  0.5000000E-15
  1.000000000000000E-004
  CAR 
 MoTe2 with Spin orbit Phonon calculatio 
    144    324    224
 
  0.2777778E-01  0.2777778E-01  0.1262379E-14  0.3086420E-02
    1      -12.409839
    2      -12.409836
    3      -11.674953
    4      -11.674678
    5      -11.596593
    6      -11.596281
    7      -11.508485
    8      -11.508483
    9      -10.975835
   10      -10.975675
   11      -10.919785
   12      -10.919611
   13      -10.623319
   14      -10.611879
   15      -10.508182
   16      -10.505664
   17      -10.505660
   18      -10.500922
   19      -10.499838
   20      -10.499787
   21      -10.498698
   22      -10.494732
   23      -10.228807
   24      -10.225940
   25      -10.172032
   26      -10.172029
   27      -10.168568
   28      -10.168317
   29      -10.167340
   30      -10.167086
   31      -10.147883
   32      -10.144958
   33       -5.243643
   34       -5.243321
   35       -5.240631
   36       -5.240308
   37       -5.237999
   38       -5.237995
   39       -4.796861
   40       -4.796855
   41       -4.512189
   42       -4.451415
   43       -4.443307
   44       -4.422918
   45       -4.422673
   46       -4.412101
   47       -4.412097
   48       -4.411223
   49       -4.410996
   50       -4.401224
   51       -4.193951
   52       -4.107546
   53       -4.106476
   54       -4.068083
   55       -4.066829
   56       -4.055382
   57       -3.935068
   58       -3.810380
   59       -3.174801
   60       -3.174795
   61       -3.173658
   62       -3.173404
   63       -3.173231
   64       -3.172988
   65       -3.136755
   66       -3.134034
   67       -3.095535
   68       -3.078289
   69       -3.022089
   70       -3.019931
   71       -2.985046
   72       -2.964760
   73       -2.829536
   74       -2.828371
   75       -2.713888
   76       -2.713120
   77       -2.709351
   78       -2.702395
   79       -2.630302
   80       -2.582012
   81       -2.571670
   82       -2.562721
   83       -2.402882
   84       -2.386363
   85       -2.158389
   86       -2.156128
   87       -2.147333
   88       -2.145404
   89       -2.145399
   90       -2.145113
   91       -1.807716
   92       -1.807700
   93       -1.632483
   94       -1.585797
   95       -1.579004
   96       -1.526854
   97       -1.521893
   98       -1.521020
   99       -1.515386
  100       -1.515380
  101       -1.510042
  102       -1.509202
  103       -1.502733
  104       -1.502721
  105       -1.372529
  106       -1.372474
  107       -1.338605
  108       -1.262808
  109       -1.255956
  110       -1.147994
  111       -1.143270
  112       -1.123049
  113       -1.118971
  114       -1.104611
  115       -0.922202
  116       -0.922053
  117       -0.818675
  118       -0.797087
  119       -0.788865
  120       -0.785151
  121       -0.634206
  122       -0.631217
  123       -0.631110
  124       -0.631084
  125       -0.630430
  126       -0.609133
  127       -0.606232
  128       -0.606202
  129       -0.601885
  130       -0.600975
  131       -0.592416
  132       -0.579604
  133       -0.287532
  134       -0.287527
  135       -0.280232
  136       -0.230500
  137       -0.163478
  138       -0.161013
  139       -0.141631
  140       -0.141597
  141       -0.116268
  142       -0.114026
  143       -0.099967
  144       -0.046451
  145        1.507549
  146        1.507776
  147        1.508025
  148        1.508210
  149        1.508235
  150        1.508281
  151        1.520197
  152        1.538476
  153        1.545660
  154        1.578872
  155        1.609511
  156        1.622972
  157        1.643328
  158        1.656621
  159        1.800461
  160        1.847745
  161        1.848299
  162        1.850619
  163        1.850639
  164        1.860266
  165        1.860818
  166        1.876033
  167        1.918669
  168        2.017168
  169        2.140616
  170        2.162482
  171        2.203697
  172        2.212537
  173        2.216718
  174        2.240466
  175        2.246312
  176        2.249941
  177        2.392082
  178        2.395943
  179        2.407314
  180        2.412461
  181        2.886228
  182        2.886229
  183        3.177561
  184        3.177621
  185        3.420690
  186        3.420695
  187        3.424214
  188        3.424606
  189        3.430051
  190        3.430448
  191        3.525958
  192        3.525970
  193        3.609699
  194        3.611844
  195        3.629244
  196        3.631033
  197        3.716145
  198        3.750199
  199        3.751708
  200        3.754780
  201        3.756275
  202        3.760217
  203        3.762730
  204        3.762798
  205        3.772148
  206        3.772150
  207        3.796401
  208        3.848672
  209        4.094389
  210        4.095272
  211        4.100457
  212        4.101330
  213        4.105181
  214        4.105193
  215        4.234466
  216        4.236263
  217        4.870729
  218        4.871478
  219        5.119972
  220        5.121292
  221        5.205727
  222        5.206947
  223        5.443033
  224        5.462834
 
  0.8333333E-01  0.2777778E-01  0.1262379E-14  0.3086420E-02
    1      -12.394403
    2      -12.394399
    3      -11.661832
    4      -11.661015
    5      -11.583776
    6      -11.582847
    7      -11.497206
    8      -11.497203
    9      -10.966293
   10      -10.965820
   11      -10.910445
   12      -10.909932
   13      -10.752421
   14      -10.742909
   15      -10.535012
   16      -10.533916
   17      -10.519864
   18      -10.517643
   19      -10.493118
   20      -10.489709
   21      -10.410236
   22      -10.394803
   23      -10.319508
   24      -10.316764
   25      -10.190638
   26      -10.190385
   27      -10.180123
   28      -10.179620
   29      -10.161264
   30      -10.160515
   31      -10.078838
   32      -10.075904
   33       -5.227843
   34       -5.218631
   35       -5.206194
   36       -5.200262
   37       -5.192459
   38       -5.189552
   39       -4.779757
   40       -4.779745
   41       -4.539400
   42       -4.447648
   43       -4.430185
   44       -4.400319
   45       -4.394632
   46       -4.380339
   47       -4.376867
   48       -4.368685
   49       -4.361425
   50       -4.327272
   51       -4.306684
   52       -4.097636
   53       -4.094439
   54       -4.059552
   55       -4.055820
   56       -4.034202
   57       -3.893719
   58       -3.663813
   59       -3.178953
   60       -3.178462
   61       -3.174921
   62       -3.174083
   63       -3.168087
   64       -3.167213
   65       -3.142738
   66       -3.134489
   67       -3.133245
   68       -3.083092
   69       -3.030790
   70       -3.030484
   71       -3.023955
   72       -3.001246
   73       -2.864624
   74       -2.827130
   75       -2.823072
   76       -2.711360
   77       -2.709484
   78       -2.702044
   79       -2.695859
   80       -2.672503
   81       -2.582888
   82       -2.555172
   83       -2.198650
   84       -2.194982
   85       -2.170833
   86       -2.165342
   87       -2.164060
   88       -2.143950
   89       -2.143837
   90       -2.133666
   91       -1.830128
   92       -1.829959
   93       -1.753490
   94       -1.703691
   95       -1.653477
   96       -1.589679
   97       -1.531893
   98       -1.522996
   99       -1.518674
  100       -1.515606
  101       -1.513791
  102       -1.502937
  103       -1.498589
  104       -1.497402
  105       -1.408295
  106       -1.399557
  107       -1.396025
  108       -1.359218
  109       -1.184949
  110       -1.122216
  111       -1.106899
  112       -1.106230
  113       -1.101093
  114       -1.026018
  115       -0.925517
  116       -0.914595
  117       -0.852069
  118       -0.846581
  119       -0.765078
  120       -0.751969
  121       -0.722901
  122       -0.696596
  123       -0.686881
  124       -0.655287
  125       -0.645415
  126       -0.635748
  127       -0.626668
  128       -0.625747
  129       -0.603662
  130       -0.573435
  131       -0.553026
  132       -0.543954
  133       -0.317805
  134       -0.288353
  135       -0.288124
  136       -0.185803
  137       -0.183758
  138       -0.177913
  139       -0.170682
  140       -0.143428
  141       -0.131827
  142       -0.099971
  143       -0.067630
  144        0.017361
  145        1.454617
  146        1.468646
  147        1.500464
  148        1.518034
  149        1.520326
  150        1.520502
  151        1.520954
  152        1.521875
  153        1.521985
  154        1.550637
  155        1.584568
  156        1.619332
  157        1.624971
  158        1.659581
  159        1.763671
  160        1.813027
  161        1.826966
  162        1.830260
  163        1.838855
  164        1.841536
  165        1.854408
  166        1.879104
  167        2.070666
  168        2.113468
  169        2.156239
  170        2.168893
  171        2.170890
  172        2.184430
  173        2.194414
  174        2.195154
  175        2.223651
  176        2.261998
  177        2.332586
  178        2.340221
  179        2.378252
  180        2.388630
  181        2.857743
  182        2.858999
  183        3.112571
  184        3.112868
  185        3.388336
  186        3.394253
  187        3.402638
  188        3.414019
  189        3.436129
  190        3.451420
  191        3.489221
  192        3.489890
  193        3.595536
  194        3.601495
  195        3.612500
  196        3.612845
  197        3.617460
  198        3.629019
  199        3.648741
  200        3.675239
  201        3.677224
  202        3.683213
  203        3.699613
  204        3.709659
  205        3.750451
  206        3.755399
  207        3.881555
  208        3.940260
  209        4.121807
  210        4.138569
  211        4.162749
  212        4.173863
  213        4.187795
  214        4.193306
  215        4.273352
  216        4.276271
  217        4.889957
  218        4.890816
  219        5.143437
  220        5.146333
  221        5.230411
  222        5.232654
  223        5.271031
  224        5.299717
 
  0.1388889E+00  0.2777778E-01  0.1262379E-14  0.3086420E-02
    1      -12.363635
    2      -12.363613
    3      -11.635491
    4      -11.634141
    5      -11.558008
    6      -11.556471
    7      -11.474742
    8      -11.474724
    9      -10.947186
   10      -10.946418
   11      -10.891855
   12      -10.891744
   13      -10.890908
   14      -10.884106
   15      -10.585919
   16      -10.583843
   17      -10.560963
   18      -10.557784
   19      -10.478826
   20      -10.473165
   21      -10.417632
   22      -10.415072
   23      -10.331911
   24      -10.314668
   25      -10.223156
   26      -10.222647
   27      -10.205916
   28      -10.205160
   29      -10.149098
   30      -10.147880
   31      -10.023262
   32      -10.020354
   33       -5.194211
   34       -5.178268
   35       -5.127928
   36       -5.119368
   37       -5.106660
   38       -5.101154
   39       -4.745872
   40       -4.745805
   41       -4.532376
   42       -4.433933
   43       -4.410770
   44       -4.392455
   45       -4.373129
   46       -4.346214
   47       -4.317178
   48       -4.310809
   49       -4.293819
   50       -4.250034
   51       -4.230196
   52       -4.106707
   53       -4.077855
   54       -4.072565
   55       -4.042546
   56       -4.036422
   57       -3.714451
   58       -3.503842
   59       -3.216088
   60       -3.185967
   61       -3.184882
   62       -3.178558
   63       -3.177277
   64       -3.157303
   65       -3.157206
   66       -3.153062
   67       -3.139006
   68       -3.118460
   69       -3.106058
   70       -3.085572
   71       -3.046460
   72       -3.043533
   73       -3.035373
   74       -2.823480
   75       -2.814632
   76       -2.748569
   77       -2.706684
   78       -2.705221
   79       -2.666267
   80       -2.655197
   81       -2.583843
   82       -2.528186
   83       -2.264849
   84       -2.203289
   85       -2.174730
   86       -2.144886
   87       -2.141752
   88       -2.123669
   89       -2.004308
   90       -1.944464
   91       -1.902825
   92       -1.877339
   93       -1.876599
   94       -1.856021
   95       -1.794535
   96       -1.727670
   97       -1.570186
   98       -1.550514
   99       -1.547470
  100       -1.516809
  101       -1.509117
  102       -1.492209
  103       -1.481595
  104       -1.477946
  105       -1.467868
  106       -1.447945
  107       -1.426845
  108       -1.412266
  109       -1.156656
  110       -1.154523
  111       -1.108748
  112       -1.081674
  113       -1.074156
  114       -0.953291
  115       -0.936513
  116       -0.908774
  117       -0.906435
  118       -0.904821
  119       -0.879207
  120       -0.865657
  121       -0.792734
  122       -0.738547
  123       -0.729171
  124       -0.695850
  125       -0.688742
  126       -0.649606
  127       -0.637013
  128       -0.603936
  129       -0.550447
  130       -0.534035
  131       -0.499743
  132       -0.493673
  133       -0.345292
  134       -0.290611
  135       -0.289515
  136       -0.218315
  137       -0.214601
  138       -0.181876
  139       -0.181625
  140       -0.134968
  141       -0.106477
  142       -0.101175
  143       -0.032738
  144        0.087235
  145        1.374556
  146        1.390273
  147        1.430730
  148        1.470326
  149        1.532828
  150        1.539388
  151        1.542309
  152        1.542329
  153        1.546143
  154        1.546219
  155        1.547683
  156        1.583628
  157        1.613686
  158        1.650714
  159        1.776526
  160        1.792937
  161        1.801055
  162        1.815220
  163        1.823318
  164        1.834762
  165        1.845061
  166        1.907166
  167        2.065181
  168        2.082407
  169        2.121874
  170        2.133150
  171        2.133933
  172        2.157599
  173        2.173126
  174        2.243307
  175        2.243794
  176        2.257368
  177        2.260719
  178        2.318314
  179        2.334168
  180        2.361815
  181        2.789499
  182        2.795482
  183        2.986024
  184        2.986205
  185        3.324777
  186        3.337055
  187        3.337437
  188        3.354911
  189        3.362330
  190        3.379595
  191        3.439690
  192        3.442321
  193        3.499233
  194        3.533755
  195        3.539438
  196        3.545222
  197        3.575922
  198        3.584393
  199        3.588736
  200        3.595706
  201        3.599321
  202        3.623566
  203        3.645004
  204        3.659744
  205        3.707092
  206        3.716568
  207        3.962869
  208        4.026079
  209        4.175785
  210        4.200761
  211        4.304919
  212        4.320015
  213        4.330280
  214        4.335883
  215        4.341782
  216        4.351795
  217        4.927902
  218        4.929203
  219        5.140800
  220        5.176438
  221        5.187189
  222        5.191197
  223        5.275795
  224        5.278738
 
  0.1944444E+00  0.2777778E-01  0.1262379E-14  0.3086420E-02
    1      -12.317774
    2      -12.317709
    3      -11.596267
    4      -11.594399
    5      -11.519637
    6      -11.517506
    7      -11.441276
    8      -11.441226
    9      -11.037879
   10      -11.031686
   11      -10.918807
   12      -10.917768
   13      -10.863975
   14      -10.862844
   15      -10.655180
   16      -10.652296
   17      -10.621294
   18      -10.617343
   19      -10.520714
   20      -10.518390
   21      -10.457548
   22      -10.449665
   23      -10.274468
   24      -10.267902
   25      -10.267140
   26      -10.255732
   27      -10.244429
   28      -10.243424
   29      -10.131358
   30      -10.129716
   31       -9.982107
   32       -9.979238
   33       -5.142971
   34       -5.119347
   35       -5.013547
   36       -5.002856
   37       -4.985555
   38       -4.977964
   39       -4.695838
   40       -4.695644
   41       -4.496893
   42       -4.450244
   43       -4.435472
   44       -4.347183
   45       -4.331882
   46       -4.262796
   47       -4.225263
   48       -4.215202
   49       -4.190123
   50       -4.153684
   51       -4.130283
   52       -4.123476
   53       -4.050598
   54       -4.043287
   55       -4.019840
   56       -4.011513
   57       -3.529991
   58       -3.389281
   59       -3.354886
   60       -3.269281
   61       -3.196125
   62       -3.194292
   63       -3.184714
   64       -3.182907
   65       -3.169677
   66       -3.149258
   67       -3.145145
   68       -3.142113
   69       -3.127885
   70       -3.125639
   71       -3.116753
   72       -3.072458
   73       -3.056395
   74       -2.823669
   75       -2.806070
   76       -2.760619
   77       -2.705859
   78       -2.703461
   79       -2.641990
   80       -2.599106
   81       -2.584568
   82       -2.488195
   83       -2.350590
   84       -2.258213
   85       -2.187511
   86       -2.151962
   87       -2.142380
   88       -2.119680
   89       -2.057005
   90       -2.012991
   91       -1.961113
   92       -1.950222
   93       -1.948341
   94       -1.891110
   95       -1.821431
   96       -1.729273
   97       -1.664546
   98       -1.632255
   99       -1.584739
  100       -1.517311
  101       -1.513977
  102       -1.510764
  103       -1.500165
  104       -1.492377
  105       -1.447359
  106       -1.445011
  107       -1.423499
  108       -1.400897
  109       -1.242616
  110       -1.226536
  111       -1.152885
  112       -1.107692
  113       -1.098052
  114       -1.086969
  115       -1.037229
  116       -1.016331
  117       -0.918314
  118       -0.909629
  119       -0.906549
  120       -0.875995
  121       -0.842519
  122       -0.838622
  123       -0.795658
  124       -0.780752
  125       -0.669498
  126       -0.621027
  127       -0.566300
  128       -0.561273
  129       -0.497933
  130       -0.490792
  131       -0.454176
  132       -0.438856
  133       -0.367825
  134       -0.295298
  135       -0.292722
  136       -0.260289
  137       -0.247431
  138       -0.221864
  139       -0.173720
  140       -0.150671
  141       -0.115850
  142       -0.046271
  143       -0.009761
  144        0.155054
  145        1.295264
  146        1.316605
  147        1.391018
  148        1.401832
  149        1.500933
  150        1.537242
  151        1.541565
  152        1.552176
  153        1.565225
  154        1.566177
  155        1.572840
  156        1.573932
  157        1.586160
  158        1.627024
  159        1.754973
  160        1.766257
  161        1.787089
  162        1.799660
  163        1.807360
  164        1.856532
  165        1.868286
  166        1.951742
  167        2.003768
  168        2.027678
  169        2.041477
  170        2.076819
  171        2.093871
  172        2.115896
  173        2.130514
  174        2.149333
  175        2.166879
  176        2.243010
  177        2.247414
  178        2.266357
  179        2.388004
  180        2.513966
  181        2.674602
  182        2.689264
  183        2.808305
  184        2.811711
  185        3.115654
  186        3.145167
  187        3.216447
  188        3.219585
  189        3.241142
  190        3.243326
  191        3.372323
  192        3.374210
  193        3.417344
  194        3.429155
  195        3.548165
  196        3.558482
  197        3.567265
  198        3.567766
  199        3.569021
  200        3.574650
  201        3.583430
  202        3.589122
  203        3.612628
  204        3.629171
  205        3.665355
  206        3.677084
  207        4.031919
  208        4.097679
  209        4.248501
  210        4.279205
  211        4.397386
  212        4.405717
  213        4.511346
  214        4.529303
  215        4.557368
  216        4.570761
  217        4.984109
  218        4.986237
  219        5.065046
  220        5.106299
  221        5.246617
  222        5.250770
  223        5.336789
  224        5.339594
 
  0.2500000E+00  0.2777778E-01  0.1262379E-14  0.3086420E-02
    1      -12.257179
    2      -12.257037
    3      -11.544674
    4      -11.542312
    5      -11.469206
    6      -11.466504
    7      -11.397088
    8      -11.396980
    9      -11.186980
   10      -11.182120
   11      -10.881597
   12      -10.880324
   13      -10.827607
   14      -10.826218
   15      -10.738807
   16      -10.735314
   17      -10.697027
   18      -10.692516
   19      -10.626372
   20      -10.624321
   21      -10.430184
   22      -10.420131
   23      -10.322665
   24      -10.321659
   25      -10.293576
   26      -10.292333
   27      -10.237863
   28      -10.218075
   29      -10.108829
   30      -10.106820
   31       -9.955561
   32       -9.952725
   33       -5.074911
   34       -5.042126
   35       -4.869814
   36       -4.857723
   37       -4.836024
   38       -4.827095
   39       -4.630620
   40       -4.630190
   41       -4.492596
   42       -4.436435
   43       -4.435421
   44       -4.317796
   45       -4.216555
   46       -4.176673
   47       -4.153511
   48       -4.108196
   49       -4.093471
   50       -4.061233
   51       -4.029301
   52       -4.025029
   53       -4.019973
   54       -4.010803
   55       -3.996182
   56       -3.986046
   57       -3.590768
   58       -3.405801
   59       -3.375804
   60       -3.276786
   61       -3.209396
   62       -3.206597
   63       -3.195021
   64       -3.193367
   65       -3.190884
   66       -3.167284
   67       -3.162653
   68       -3.134464
   69       -3.124377
   70       -3.111343
   71       -3.106043
   72       -3.089566
   73       -3.040062
   74       -2.838007
   75       -2.804702
   76       -2.763548
   77       -2.723456
   78       -2.710072
   79       -2.634669
   80       -2.586442
   81       -2.498965
   82       -2.448058
   83       -2.432497
   84       -2.321910
   85       -2.206878
   86       -2.197626
   87       -2.168340
   88       -2.154885
   89       -2.149649
   90       -2.127718
   91       -2.125733
   92       -2.052879
   93       -2.046794
   94       -2.043754
   95       -1.787168
   96       -1.745577
   97       -1.688989
   98       -1.651725
   99       -1.613386
  100       -1.563815
  101       -1.544628
  102       -1.531395
  103       -1.470710
  104       -1.461439
  105       -1.401449
  106       -1.398616
  107       -1.396196
  108       -1.368223
  109       -1.338655
  110       -1.327154
  111       -1.304673
  112       -1.281553
  113       -1.190358
  114       -1.158421
  115       -1.113845
  116       -1.020699
  117       -0.972750
  118       -0.957458
  119       -0.951714
  120       -0.950688
  121       -0.899619
  122       -0.887397
  123       -0.863319
  124       -0.690428
  125       -0.684910
  126       -0.571375
  127       -0.522820
  128       -0.518231
  129       -0.455874
  130       -0.455692
  131       -0.412226
  132       -0.391934
  133       -0.390661
  134       -0.303483
  135       -0.302097
  136       -0.299608
  137       -0.282933
  138       -0.269742
  139       -0.175553
  140       -0.163377
  141       -0.140042
  142        0.000158
  143        0.008231
  144        0.209639
  145        1.230969
  146        1.259517
  147        1.371572
  148        1.398763
  149        1.451409
  150        1.486069
  151        1.535197
  152        1.542894
  153        1.545888
  154        1.576774
  155        1.578714
  156        1.585271
  157        1.587281
  158        1.590565
  159        1.727387
  160        1.738774
  161        1.769974
  162        1.785099
  163        1.827758
  164        1.899155
  165        1.920076
  166        1.939787
  167        1.973470
  168        1.996385
  169        2.017989
  170        2.027837
  171        2.061597
  172        2.065762
  173        2.073299
  174        2.090964
  175        2.093677
  176        2.186810
  177        2.205830
  178        2.213447
  179        2.495436
  180        2.525326
  181        2.549395
  182        2.603049
  183        2.611588
  184        2.626503
  185        2.864109
  186        2.903845
  187        3.056636
  188        3.075419
  189        3.094351
  190        3.107933
  191        3.206914
  192        3.208016
  193        3.408394
  194        3.421972
  195        3.547732
  196        3.553386
  197        3.554730
  198        3.556260
  199        3.559661
  200        3.560539
  201        3.598377
  202        3.614757
  203        3.621076
  204        3.635878
  205        3.647743
  206        3.668675
  207        4.081708
  208        4.148401
  209        4.332823
  210        4.367164
  211        4.475182
  212        4.485453
  213        4.770600
  214        4.789591
  215        4.823452
  216        4.838400
  217        5.057227
  218        5.058385
  219        5.061577
  220        5.103308
  221        5.318628
  222        5.322170
  223        5.410772
  224        5.484550
 
  0.3055556E+00  0.2777778E-01  0.1262379E-14  0.3086420E-02
    1      -12.182313
    2      -12.182049
    3      -11.481445
    4      -11.478622
    5      -11.407481
    6      -11.404239
    7      -11.342575
    8      -11.342379
    9      -11.335933
   10      -11.332189
   11      -10.836184
   12      -10.834721
   13      -10.832573
   14      -10.828674
   15      -10.783943
   16      -10.783293
   17      -10.781692
   18      -10.779084
   19      -10.732363
   20      -10.730605
   21      -10.397979
   22      -10.385832
   23      -10.384968
   24      -10.383738
   25      -10.350913
   26      -10.349453
   27      -10.220712
   28      -10.200387
   29      -10.082571
   30      -10.080262
   31       -9.942932
   32       -9.940112
   33       -4.991176
   34       -4.947003
   35       -4.705360
   36       -4.692892
   37       -4.666813
   38       -4.657586
   39       -4.551631
   40       -4.550814
   41       -4.507071
   42       -4.438606
   43       -4.390660
   44       -4.286546
   45       -4.190018
   46       -4.077282
   47       -4.022725
   48       -3.992651
   49       -3.982021
   50       -3.979034
   51       -3.979010
   52       -3.970516
   53       -3.968460
   54       -3.967879
   55       -3.950033
   56       -3.911825
   57       -3.768333
   58       -3.491776
   59       -3.278606
   60       -3.231152
   61       -3.230535
   62       -3.224793
   63       -3.220698
   64       -3.203906
   65       -3.200501
   66       -3.194558
   67       -3.181387
   68       -3.164889
   69       -3.136344
   70       -3.130282
   71       -3.107174
   72       -2.968047
   73       -2.893260
   74       -2.882831
   75       -2.826256
   76       -2.778411
   77       -2.765366
   78       -2.743802
   79       -2.632377
   80       -2.588860
   81       -2.549641
   82       -2.388089
   83       -2.362071
   84       -2.357308
   85       -2.303145
   86       -2.270818
   87       -2.256911
   88       -2.234509
   89       -2.194899
   90       -2.188052
   91       -2.166172
   92       -2.164922
   93       -2.161751
   94       -2.143521
   95       -1.925443
   96       -1.903378
   97       -1.875157
   98       -1.845888
   99       -1.586099
  100       -1.559263
  101       -1.500887
  102       -1.430710
  103       -1.428832
  104       -1.414974
  105       -1.397894
  106       -1.386946
  107       -1.375679
  108       -1.367989
  109       -1.359119
  110       -1.356685
  111       -1.345085
  112       -1.321403
  113       -1.280865
  114       -1.241661
  115       -1.224896
  116       -1.101877
  117       -1.068124
  118       -1.042966
  119       -1.040756
  120       -0.993168
  121       -0.916634
  122       -0.895334
  123       -0.867060
  124       -0.690855
  125       -0.596521
  126       -0.561355
  127       -0.516936
  128       -0.484000
  129       -0.435306
  130       -0.428716
  131       -0.414875
  132       -0.379556
  133       -0.354649
  134       -0.341453
  135       -0.324728
  136       -0.318283
  137       -0.315843
  138       -0.312721
  139       -0.205208
  140       -0.169253
  141       -0.149130
  142        0.024858
  143        0.027725
  144        0.239821
  145        1.195248
  146        1.228941
  147        1.385635
  148        1.409793
  149        1.440318
  150        1.452418
  151        1.493390
  152        1.510766
  153        1.517333
  154        1.538149
  155        1.561414
  156        1.564974
  157        1.567277
  158        1.575725
  159        1.730521
  160        1.735221
  161        1.779870
  162        1.783721
  163        1.867801
  164        1.896765
  165        1.927560
  166        1.954139
  167        1.977784
  168        1.988512
  169        1.999470
  170        2.025068
  171        2.035358
  172        2.042810
  173        2.049536
  174        2.056745
  175        2.105070
  176        2.157035
  177        2.172300
  178        2.180393
  179        2.361742
  180        2.365421
  181        2.412416
  182        2.426380
  183        2.551068
  184        2.633402
  185        2.682720
  186        2.684684
  187        2.878112
  188        2.906017
  189        2.927830
  190        2.950839
  191        3.020263
  192        3.026466
  193        3.424647
  194        3.440569
  195        3.544715
  196        3.548272
  197        3.549468
  198        3.550673
  199        3.551341
  200        3.552315
  201        3.591280
  202        3.606503
  203        3.616297
  204        3.627151
  205        3.705751
  206        3.759020
  207        4.107724
  208        4.174548
  209        4.424829
  210        4.461430
  211        4.565358
  212        4.576661
  213        5.070083
  214        5.087262
  215        5.121514
  216        5.127728
  217        5.141215