mesh: [    64,    64,     1 ]
nqpoint: 1024   
reciprocal_lattice:
- [   0.14080541,   0.00000000,   0.00000000 ] # a*
- [   0.00000000,   0.08131403,   0.00000000 ] # b*
- [   0.00000000,   0.00000000,   0.06250000 ] # c*
natom:   24     
lattice:
- [     7.102000000000000,     0.000000000000000,     0.000000000000000 ] # a
- [     0.000000000000000,    12.298000000000000,     0.000000000000000 ] # b
- [     0.000000000000000,     0.000000000000000,    16.000000000000000 ] # c
points:
- symbol: Te # 1
  coordinates: [  0.000000000000000,  0.333329809725159,  0.112828750000000 ]
  mass: 127.600000
- symbol: Te # 2
  coordinates: [  0.500000000000000,  0.333329809725159,  0.112828750000000 ]
  mass: 127.600000
- symbol: Te # 3
  coordinates: [  0.000000000000000,  0.833329809725159,  0.112828750000000 ]
  mass: 127.600000
- symbol: Te # 4
  coordinates: [  0.500000000000000,  0.833329809725159,  0.112828750000000 ]
  mass: 127.600000
- symbol: Te # 5
  coordinates: [  0.000000000000000,  0.333329809725159,  0.887171250000000 ]
  mass: 127.600000
- symbol: Te # 6
  coordinates: [  0.500000000000000,  0.333329809725159,  0.887171250000000 ]
  mass: 127.600000
- symbol: Te # 7
  coordinates: [  0.000000000000000,  0.833329809725159,  0.887171250000000 ]
  mass: 127.600000
- symbol: Te # 8
  coordinates: [  0.500000000000000,  0.833329809725159,  0.887171250000000 ]
  mass: 127.600000
- symbol: Te # 9
  coordinates: [  0.250000000000000,  0.083328996584810,  0.112827500000000 ]
  mass: 127.600000
- symbol: Te # 10
  coordinates: [  0.750000000000000,  0.083328996584810,  0.112827500000000 ]
  mass: 127.600000
- symbol: Te # 11
  coordinates: [  0.250000000000000,  0.583328996584811,  0.112827500000000 ]
  mass: 127.600000
- symbol: Te # 12
  coordinates: [  0.750000000000000,  0.583328996584811,  0.112827500000000 ]
  mass: 127.600000
- symbol: Te # 13
  coordinates: [  0.250000000000000,  0.083328996584810,  0.887172500000000 ]
  mass: 127.600000
- symbol: Te # 14
  coordinates: [  0.750000000000000,  0.083328996584810,  0.887172500000000 ]
  mass: 127.600000
- symbol: Te # 15
  coordinates: [  0.250000000000000,  0.583328996584811,  0.887172500000000 ]
  mass: 127.600000
- symbol: Te # 16
  coordinates: [  0.750000000000000,  0.583328996584811,  0.887172500000000 ]
  mass: 127.600000
- symbol: Mo # 17
  coordinates: [  0.250000000000000,  0.250007318263132,  0.000000000000000 ]
  mass: 95.960000
- symbol: Mo # 18
  coordinates: [  0.750000000000000,  0.250007318263132,  0.000000000000000 ]
  mass: 95.960000
- symbol: Mo # 19
  coordinates: [  0.250000000000000,  0.750007318263132,  0.000000000000000 ]
  mass: 95.960000
- symbol: Mo # 20
  coordinates: [  0.750000000000000,  0.750007318263132,  0.000000000000000 ]
  mass: 95.960000
- symbol: Mo # 21
  coordinates: [  0.000000000000000,  0.000004065701740,  0.000000000000000 ]
  mass: 95.960000
- symbol: Mo # 22
  coordinates: [  0.500000000000000,  0.000004065701740,  0.000000000000000 ]
  mass: 95.960000
- symbol: Mo # 23
  coordinates: [  0.000000000000000,  0.500004065701740,  0.000000000000000 ]
  mass: 95.960000
- symbol: Mo # 24
  coordinates: [  0.500000000000000,  0.500004065701740,  0.000000000000000 ]
  mass: 95.960000
phonon:
- q-position: [    0.0078125,    0.0078125,    0.0000000 ]
  weight: 4    
  band:
  - # 1
    frequency:    -0.1581181663
  - # 2
    frequency:     0.0239006845
  - # 3
    frequency:     0.1567615422
  - # 4
    frequency:     1.6574582765
  - # 5
    frequency:     1.6756866054
  - # 6
    frequency:     1.6966964673
  - # 7
    frequency:     1.7295747527
  - # 8
    frequency:     2.2368867007
  - # 9
    frequency:     2.2736224574
  - # 10
    frequency:     2.2740823226
  - # 11
    frequency:     2.4805868606
  - # 12
    frequency:     2.4808374867
  - # 13
    frequency:     2.7307946607
  - # 14
    frequency:     2.7566945192
  - # 15
    frequency:     2.8051629867
  - # 16
    frequency:     2.8320197417
  - # 17
    frequency:     3.0162529766
  - # 18
    frequency:     3.0503754373
  - # 19
    frequency:     3.0993316610
  - # 20
    frequency:     3.0995844973
  - # 21
    frequency:     3.1137226364
  - # 22
    frequency:     3.2131903503
  - # 23
    frequency:     3.2217290038
  - # 24
    frequency:     3.2218463256
  - # 25
    frequency:     3.3319511181
  - # 26
    frequency:     3.3770289308
  - # 27
    frequency:     3.5609716664
  - # 28
    frequency:     3.5659371387
  - # 29
    frequency:     3.7395120378
  - # 30
    frequency:     3.7716994344
  - # 31
    frequency:     3.7719763432
  - # 32
    frequency:     4.0964803434
  - # 33
    frequency:     4.1094187308
  - # 34
    frequency:     4.1928985294
  - # 35
    frequency:     4.2058122081
  - # 36
    frequency:     4.3479954325
  - # 37
    frequency:     4.3498685803
  - # 38
    frequency:     4.4193385361
  - # 39
    frequency:     4.4194165048
  - # 40
    frequency:     4.4251423062
  - # 41
    frequency:     4.5325767781
  - # 42
    frequency:     4.5365825241
  - # 43
    frequency:     4.7344503101
  - # 44
    frequency:     4.7606145199
  - # 45
    frequency:     4.7684937180
  - # 46
    frequency:     4.7937986604
  - # 47
    frequency:     4.7938303669
  - # 48
    frequency:     5.2532753863
  - # 49
    frequency:     6.5512551834
  - # 50
    frequency:     6.5528358386
  - # 51
    frequency:     6.7239946693
  - # 52
    frequency:     6.7243023992
  - # 53
    frequency:     6.7273804559
  - # 54
    frequency:     6.8755250055
  - # 55
    frequency:     6.8915213931
  - # 56
    frequency:     6.8933145790
  - # 57
    frequency:     6.8940336978
  - # 58
    frequency:     7.0084224265
  - # 59
    frequency:     7.0328757218
  - # 60
    frequency:     7.0330864619
  - # 61
    frequency:     7.0866697871
  - # 62
    frequency:     7.0878371484
  - # 63
    frequency:     7.2845501226
  - # 64
    frequency:     7.2894050776
  - # 65
    frequency:     7.4295749578
  - # 66
    frequency:     7.4327636157
  - # 67
    frequency:     7.4331286138
  - # 68
    frequency:     7.4408654315
  - # 69
    frequency:     7.4431487047
  - # 70
    frequency:     7.9974885988
  - # 71
    frequency:     8.0110377044
  - # 72
    frequency:     8.5376916195

- q-position: [    0.0234375,    0.0078125,    0.0000000 ]
  weight: 4    
  band:
  - # 1
    frequency:    -0.2582504854
  - # 2
    frequency:     0.0683867275
  - # 3
    frequency:     0.2863537659
  - # 4
    frequency:     1.6603210932
  - # 5
    frequency:     1.6785489857
  - # 6
    frequency:     1.6982391154
  - # 7
    frequency:     1.7310672519
  - # 8
    frequency:     2.2387633776
  - # 9
    frequency:     2.2732111934
  - # 10
    frequency:     2.2745675550
  - # 11
    frequency:     2.4794660286
  - # 12
    frequency:     2.4799225323
  - # 13
    frequency:     2.7308739362
  - # 14
    frequency:     2.7567265957
  - # 15
    frequency:     2.7772789654
  - # 16
    frequency:     2.8578316000
  - # 17
    frequency:     2.9824920893
  - # 18
    frequency:     3.0846200797
  - # 19
    frequency:     3.0969941497
  - # 20
    frequency:     3.0977343767
  - # 21
    frequency:     3.1133914625
  - # 22
    frequency:     3.2129716879
  - # 23
    frequency:     3.2217164590
  - # 24
    frequency:     3.2218826447
  - # 25
    frequency:     3.3335573729
  - # 26
    frequency:     3.3776637161
  - # 27
    frequency:     3.5617119801
  - # 28
    frequency:     3.5666886970
  - # 29
    frequency:     3.7408667252
  - # 30
    frequency:     3.7716046179
  - # 31
    frequency:     3.7724589441
  - # 32
    frequency:     4.0830163886
  - # 33
    frequency:     4.1217814758
  - # 34
    frequency:     4.1930497281
  - # 35
    frequency:     4.2059409793
  - # 36
    frequency:     4.3455585056
  - # 37
    frequency:     4.3511019838
  - # 38
    frequency:     4.4191325780
  - # 39
    frequency:     4.4193824538
  - # 40
    frequency:     4.4248659968
  - # 41
    frequency:     4.5280040245
  - # 42
    frequency:     4.5400625340
  - # 43
    frequency:     4.7337916811
  - # 44
    frequency:     4.7601157672
  - # 45
    frequency:     4.7679846398
  - # 46
    frequency:     4.7928367386
  - # 47
    frequency:     4.7928979265
  - # 48
    frequency:     5.2520759761
  - # 49
    frequency:     6.5500166925
  - # 50
    frequency:     6.5547514121
  - # 51
    frequency:     6.7240407532
  - # 52
    frequency:     6.7245556966
  - # 53
    frequency:     6.7277888174
  - # 54
    frequency:     6.8634146841
  - # 55
    frequency:     6.8912423920
  - # 56
    frequency:     6.8930015377
  - # 57
    frequency:     6.9064832128
  - # 58
    frequency:     7.0081703691
  - # 59
    frequency:     7.0329832676
  - # 60
    frequency:     7.0335264782
  - # 61
    frequency:     7.0868289210
  - # 62
    frequency:     7.0879612448
  - # 63
    frequency:     7.2794273775
  - # 64
    frequency:     7.2939859035
  - # 65
    frequency:     7.4167695612
  - # 66
    frequency:     7.4333908599
  - # 67
    frequency:     7.4339818394
  - # 68
    frequency:     7.4405840054
  - # 69
    frequency:     7.4574432395
  - # 70
    frequency:     7.9968581573
  - # 71
    frequency:     8.0103993331
  - # 72
    frequency:     8.5367695180

- q-position: [    0.0390625,    0.0078125,    0.0000000 ]
  weight: 4    
  band:
  - # 1
    frequency:    -0.3172280583
  - # 2
    frequency:     0.1135840954
  - # 3
    frequency:     0.3838914996
  - # 4
    frequency:     1.6660139946
  - # 5
    frequency:     1.6842416524
  - # 6
    frequency:     1.7013208311
  - # 7
    frequency:     1.7340493818
  - # 8
    frequency:     2.2424957159
  - # 9
    frequency:     2.2728361156
  - # 10
    frequency:     2.2750917979
  - # 11
    frequency:     2.4775011297
  - # 12
    frequency:     2.4777257999
  - # 13
    frequency:     2.7310381770
  - # 14
    frequency:     2.7483849254
  - # 15
    frequency:     2.7567955655
  - # 16
    frequency:     2.8825814155
  - # 17
    frequency:     2.9493685368
  - # 18
    frequency:     3.0925754797
  - # 19
    frequency:     3.0938057579
  - # 20
    frequency:     3.1127415511
  - # 21
    frequency:     3.1187793140
  - # 22
    frequency:     3.2125440893
  - # 23
    frequency:     3.2216991206
  - # 24
    frequency:     3.2219290371
  - # 25
    frequency:     3.3367371072
  - # 26
    frequency:     3.3789562805
  - # 27
    frequency:     3.5631869714
  - # 28
    frequency:     3.5681857535
  - # 29
    frequency:     3.7435602803
  - # 30
    frequency:     3.7716995364
  - # 31
    frequency:     3.7731274051
  - # 32
    frequency:     4.0690727758
  - # 33
    frequency:     4.1335161737
  - # 34
    frequency:     4.1933532257
  - # 35
    frequency:     4.2061999697
  - # 36
    frequency:     4.3426365089
  - # 37
    frequency:     4.3516321564
  - # 38
    frequency:     4.4188032630
  - # 39
    frequency:     4.4192238125
  - # 40
    frequency:     4.4243144252
  - # 41
    frequency:     4.5228338803
  - # 42
    frequency:     4.5430709531
  - # 43
    frequency:     4.7324753398
  - # 44
    frequency:     4.7591210932
  - # 45
    frequency:     4.7669691727
  - # 46
    frequency:     4.7909355644
  - # 47
    frequency:     4.7910303891
  - # 48
    frequency:     5.2496806912
  - # 49
    frequency:     6.5490969189
  - # 50
    frequency:     6.5570219365
  - # 51
    frequency:     6.7242132745
  - # 52
    frequency:     6.7249818947
  - # 53
    frequency:     6.7286011959
  - # 54
    frequency:     6.8504050038
  - # 55
    frequency:     6.8906866179
  - # 56
    frequency:     6.8923755167
  - # 57
    frequency:     6.9201719681
  - # 58
    frequency:     7.0076694062
  - # 59
    frequency:     7.0333595128
  - # 60
    frequency:     7.0342400226
  - # 61
    frequency:     7.0871444491
  - # 62
    frequency:     7.0882068346
  - # 63
    frequency:     7.2740423020
  - # 64
    frequency:     7.2982870531
  - # 65
    frequency:     7.4047105560
  - # 66
    frequency:     7.4347268154
  - # 67
    frequency:     7.4356095956
  - # 68
    frequency:     7.4400192824
  - # 69
    frequency:     7.4724713028
  - # 70
    frequency:     7.9955984462
  - # 71
    frequency:     8.0091237515
  - # 72
    frequency:     8.5349265112

- q-position: [    0.0546875,    0.0078125,    0.0000000 ]
  weight: 4    
  band:
  - # 1
    frequency:    -0.3562320226
  - # 2
    frequency:     0.1589712487
  - # 3
    frequency:     0.4698022579
  - # 4
    frequency:     1.6744721522
  - # 5
    frequency:     1.6927011872
  - # 6
    frequency:     1.7059347926
  - # 7
    frequency:     1.7385150839
  - # 8
    frequency:     2.2480417933
  - # 9
    frequency:     2.2725004240
  - # 10
    frequency:     2.2756541931
  - # 11
    frequency:     2.4731855073
  - # 12
    frequency:     2.4755789079
  - # 13
    frequency:     2.7184983367
  - # 14
    frequency:     2.7312981897
  - # 15
    frequency:     2.7569117508
  - # 16
    frequency:     2.9062520079
  - # 17
    frequency:     2.9171959052
  - # 18
    frequency:     3.0861033736
  - # 19
    frequency:     3.0878259120
  - # 20
    frequency:     3.1117971188
  - # 21
    frequency:     3.1526708121
  - # 22
    frequency:     3.2119270880
  - # 23
    frequency:     3.2216642507
  - # 24
    frequency:     3.2219614351
  - # 25
    frequency:     3.3414174091
  - # 26
    frequency:     3.3809601137
  - # 27
    frequency:     3.5653849662
  - # 28
    frequency:     3.5704166699
  - # 29
    frequency:     3.7475617102
  - # 30
    frequency:     3.7719745814
  - # 31
    frequency:     3.7739676372
  - # 32
    frequency:     4.0546934959
  - # 33
    frequency:     4.1445655062
  - # 34
    frequency:     4.1938115961
  - # 35
    frequency:     4.2065917015
  - # 36
    frequency:     4.3393188669
  - # 37
    frequency:     4.3514003422
  - # 38
    frequency:     4.4183455784
  - # 39
    frequency:     4.4189300201
  - # 40
    frequency:     4.4234896862
  - # 41
    frequency:     4.5170496969
  - # 42
    frequency:     4.5456718714
  - # 43
    frequency:     4.7305031339
  - # 44
    frequency:     4.7576360086
  - # 45
    frequency:     4.7654528410
  - # 46
    frequency:     4.7881177969
  - # 47
    frequency:     4.7882450063
  - # 48
    frequency:     5.2460966089
  - # 49
    frequency:     6.5484835686
  - # 50
    frequency:     6.5596529283
  - # 51
    frequency:     6.7245305022
  - # 52
    frequency:     6.7255626131
  - # 53
    frequency:     6.7298089121
  - # 54
    frequency:     6.8374325470
  - # 55
    frequency:     6.8898580435
  - # 56
    frequency:     6.8914431217
  - # 57
    frequency:     6.9341586085
  - # 58
    frequency:     7.0069258956
  - # 59
    frequency:     7.0340030717
  - # 60
    frequency:     7.0352178575
  - # 61
    frequency:     7.0876101149
  - # 62
    frequency:     7.0885696520
  - # 63
    frequency:     7.2684007809
  - # 64
    frequency:     7.3023024835
  - # 65
    frequency:     7.3934054799
  - # 66
    frequency:     7.4367878253
  - # 67
    frequency:     7.4379800785
  - # 68
    frequency:     7.4391781630
  - # 69
    frequency:     7.4882173271
  - # 70
    frequency:     7.9937117962
  - # 71
    frequency:     8.0072132950
  - # 72
    frequency:     8.5321649913

- q-position: [    0.0703125,    0.0078125,    0.0000000 ]
  weight: 4    
  band:
  - # 1
    frequency:    -0.3815657926
  - # 2
    frequency:     0.2045179581
  - # 3
    frequency:     0.5495697408
  - # 4
    frequency:     1.6856000553
  - # 5
    frequency:     1.7038341347
  - # 6
    frequency:     1.7120707857
  - # 7
    frequency:     1.7444552686
  - # 8
    frequency:     2.2553389899
  - # 9
    frequency:     2.2722062779
  - # 10
    frequency:     2.2762558086
  - # 11
    frequency:     2.4665464370
  - # 12
    frequency:     2.4732076287
  - # 13
    frequency:     2.6876366931
  - # 14
    frequency:     2.7316703457
  - # 15
    frequency:     2.7570908081
  - # 16
    frequency:     2.8863186828
  - # 17
    frequency:     2.9288264897
  - # 18
    frequency:     3.0776176584
  - # 19
    frequency:     3.0798351595
  - # 20
    frequency:     3.1105929273
  - # 21
    frequency:     3.1861314234
  - # 22
    frequency:     3.2111502191
  - # 23
    frequency:     3.2215866267
  - # 24
    frequency:     3.2219503103
  - # 25
    frequency:     3.3474666486
  - # 26
    frequency:     3.3837780476
  - # 27
    frequency:     3.5682885824
  - # 28
    frequency:     3.5733641137
  - # 29
    frequency:     3.7528260549
  - # 30
    frequency:     3.7724143578
  - # 31
    frequency:     3.7749610640
  - # 32
    frequency:     4.0399205996
  - # 33
    frequency:     4.1548666444
  - # 34
    frequency:     4.1944286758
  - # 35
    frequency:     4.2071199389
  - # 36
    frequency:     4.3357042658
  - # 37
    frequency:     4.3503543854
  - # 38
    frequency:     4.4177496854
  - # 39
    frequency:     4.4184882967
  - # 40
    frequency:     4.4223949323
  - # 41
    frequency:     4.5106487135
  - # 42
    frequency:     4.5479390287
  - # 43
    frequency:     4.7278778487
  - # 44
    frequency:     4.7556687800
  - # 45
    frequency:     4.7634439316
  - # 46
    frequency:     4.7844141004
  - # 47
    frequency:     4.7845706665
  - # 48
    frequency:     5.2413343616
  - # 49
    frequency:     6.5481618559
  - # 50
    frequency:     6.5626491299
  - # 51
    frequency:     6.7249970898
  - # 52
    frequency:     6.7262930238
  - # 53
    frequency:     6.7313988077
  - # 54
    frequency:     6.8246520172
  - # 55
    frequency:     6.8887623588
  - # 56
    frequency:     6.8902123582
  - # 57
    frequency:     6.9482830475
  - # 58
    frequency:     7.0059495324
  - # 59
    frequency:     7.0349073055
  - # 60
    frequency:     7.0364509141
  - # 61
    frequency:     7.0882166316
  - # 62
    frequency:     7.0890436236
  - # 63
    frequency:     7.2625086879
  - # 64
    frequency:     7.3060261105
  - # 65
    frequency:     7.3828547485
  - # 66
    frequency:     7.4380394012
  - # 67
    frequency:     7.4395868508
  - # 68
    frequency:     7.4410915584
  - # 69
    frequency:     7.5046661422
  - # 70
    frequency:     7.9912017031
  - # 71
    frequency:     8.0046714670
  - # 72
    frequency:     8.5284885470

- q-position: [    0.0859375,    0.0078125,    0.0000000 ]
  weight: 4    
  band:
  - # 1
    frequency:    -0.3959954665
  - # 2
    frequency:     0.2502385759
  - # 3
    frequency:     0.6255341656
  - # 4
    frequency:     1.6992734444
  - # 5
    frequency:     1.7175188677
  - # 6
    frequency:     1.7197152258
  - # 7
    frequency:     1.7518578159
  - # 8
    frequency:     2.2643042818
  - # 9
    frequency:     2.2719559794
  - # 10
    frequency:     2.2768981321
  - # 11
    frequency:     2.4571372312
  - # 12
    frequency:     2.4707656764
  - # 13
    frequency:     2.6558175836
  - # 14
    frequency:     2.7321767751
  - # 15
    frequency:     2.7573539124
  - # 16
    frequency:     2.8570920736
  - # 17
    frequency:     2.9502884100
  - # 18
    frequency:     3.0671695001
  - # 19
    frequency:     3.0698851162
  - # 20
    frequency:     3.1091725987
  - # 21
    frequency:     3.2102530726
  - # 22
    frequency:     3.2190109864
  - # 23
    frequency:     3.2214317498
  - # 24
    frequency:     3.2218587643
  - # 25
    frequency:     3.3546583408
  - # 26
    frequency:     3.3875987823
  - # 27
    frequency:     3.5718748833
  - # 28
    frequency:     3.5770052085
  - # 29
    frequency:     3.7592960438
  - # 30
    frequency:     3.7729989639
  - # 31
    frequency:     3.7760850182
  - # 32
    frequency:     4.0247944875
  - # 33
    frequency:     4.1643502235
  - # 34
    frequency:     4.1952095333
  - # 35
    frequency:     4.2077896622
  - # 36
    frequency:     4.3319015550
  - # 37
    frequency:     4.3484482520
  - # 38
    frequency:     4.4170024531
  - # 39
    frequency:     4.4178829581
  - # 40
    frequency:     4.4210343873
  - # 41
    frequency:     4.5036429364
  - # 42
    frequency:     4.5499547066
  - # 43
    frequency:     4.7246032248
  - # 44
    frequency:     4.7532304301
  - # 45
    frequency:     4.7609534959
  - # 46
    frequency:     4.7798644912
  - # 47
    frequency:     4.7800461632
  - # 48
    frequency:     5.2354081550
  - # 49
    frequency:     6.5481160491
  - # 50
    frequency:     6.5660131085
  - # 51
    frequency:     6.7256148637
  - # 52
    frequency:     6.7271710381
  - # 53
    frequency:     6.7333530930
  - # 54
    frequency:     6.8121230006
  - # 55
    frequency:     6.8874068549
  - # 56
    frequency:     6.8886934785
  - # 57
    frequency:     6.9624785358
  - # 58
    frequency:     7.0047535445
  - # 59
    frequency:     7.0360628282
  - # 60
    frequency:     7.0379280496
  - # 61
    frequency:     7.0889515629
  - # 62
    frequency:     7.0896214583
  - # 63
    frequency:     7.2563719918
  - # 64
    frequency:     7.3094517351
  - # 65
    frequency:     7.3730562061
  - # 66
    frequency:     7.4366473942
  - # 67
    frequency:     7.4430910678
  - # 68
    frequency:     7.4449192692
  - # 69
    frequency:     7.5218002817
  - # 70
    frequency:     7.9880728279
  - # 71
    frequency:     8.0015029384
  - # 72
    frequency:     8.5239019638

- q-position: [    0.1015625,    0.0078125,    0.0000000 ]
  weight: 4    
  band:
  - # 1
    frequency:    -0.4008401282
  - # 2
    frequency:     0.2961554194
  - # 3
    frequency:     0.6989065059
  - # 4
    frequency:     1.7153416683
  - # 5
    frequency:     1.7288511874
  - # 6
    frequency:     1.7336078645
  - # 7
    frequency:     1.7607075791
  - # 8
    frequency:     2.2717517313
  - # 9
    frequency:     2.2748346156
  - # 10
    frequency:     2.2775828948
  - # 11
    frequency:     2.4445314449
  - # 12
    frequency:     2.4683834399
  - # 13
    frequency:     2.6230587480
  - # 14
    frequency:     2.7328456147
  - # 15
    frequency:     2.7577280183
  - # 16
    frequency:     2.8298440493
  - # 17
    frequency:     2.9706219875
  - # 18
    frequency:     3.0548199348
  - # 19
    frequency:     3.0580371385
  - # 20
    frequency:     3.1075866294
  - # 21
    frequency:     3.2092863850
  - # 22
    frequency:     3.2211543896
  - # 23
    frequency:     3.2216405633
  - # 24
    frequency:     3.2511708599
  - # 25
    frequency:     3.3626157440
  - # 26
    frequency:     3.3927527858
  - # 27
    frequency:     3.5761155806
  - # 28
    frequency:     3.5813117312
  - # 29
    frequency:     3.7669040366
  - # 30
    frequency:     3.7737049736
  - # 31
    frequency:     3.7773136955
  - # 32
    frequency:     4.0093541106
  - # 33
    frequency:     4.1729396304
  - # 34
    frequency:     4.1961604259
  - # 35
    frequency:     4.2086070322
  - # 36
    frequency:     4.3280301196
  - # 37
    frequency:     4.3456417566
  - # 38
    frequency:     4.4160880510
  - # 39
    frequency:     4.4170958905
  - # 40
    frequency:     4.4194133631
  - # 41
    frequency:     4.4960599746
  - # 42
    frequency:     4.5518085759
  - # 43
    frequency:     4.7206839831
  - # 44
    frequency:     4.7503347391
  - # 45
    frequency:     4.7579953506
  - # 46
    frequency:     4.7745182780
  - # 47
    frequency:     4.7747197272
  - # 48
    frequency:     5.2283357877
  - # 49
    frequency:     6.5483298448
  - # 50
    frequency:     6.5697450666
  - # 51
    frequency:     6.7263847572
  - # 52
    frequency:     6.7281953287
  - # 53
    frequency:     6.7356491491
  - # 54
    frequency:     6.7998806075
  - # 55
    frequency:     6.8858001732
  - # 56
    frequency:     6.8868987234
  - # 57
    frequency:     6.9767009877
  - # 58
    frequency:     7.0033549771
  - # 59
    frequency:     7.0374578893
  - # 60
    frequency:     7.0396360038
  - # 61
    frequency:     7.0897982428
  - # 62
    frequency:     7.0902962949
  - # 63
    frequency:     7.2499968128
  - # 64
    frequency:     7.3125730303
  - # 65
    frequency:     7.3640054208
  - # 66
    frequency:     7.4349816990
  - # 67
    frequency:     7.4473089592
  - # 68
    frequency:     7.4494587914
  - # 69
    frequency:     7.5395998772
  - # 70
    frequency:     7.9843309966
  - # 71
    frequency:     7.9977135480
  - # 72
    frequency:     8.5184112243

- q-position: [    0.1171875,    0.0078125,    0.0000000 ]
  weight: 4    
  band:
  - # 1
    frequency:    -0.3965981120
  - # 2
    frequency:     0.3422910252
  - # 3
    frequency:     0.7703834689
  - # 4
    frequency:     1.7336303058
  - # 5
    frequency:     1.7394584615
  - # 6
    frequency:     1.7519302343
  - # 7
    frequency:     1.7709863931
  - # 8
    frequency:     2.2715958885
  - # 9
    frequency:     2.2783107556
  - # 10
    frequency:     2.2868079184
  - # 11
    frequency:     2.4283783624
  - # 12
    frequency:     2.4661709932
  - # 13
    frequency:     2.5893781443
  - # 14
    frequency:     2.7337113082
  - # 15
    frequency:     2.7582461727
  - # 16
    frequency:     2.8048212137
  - # 17
    frequency:     2.9898123861
  - # 18
    frequency:     3.0406382508
  - # 19
    frequency:     3.0443606950
  - # 20
    frequency:     3.1058902665
  - # 21
    frequency:     3.2083111275
  - # 22
    frequency:     3.2207045979
  - # 23
    frequency:     3.2212439074
  - # 24
    frequency:     3.2824722078
  - # 25
    frequency:     3.3707839786
  - # 26
    frequency:     3.3997407651
  - # 27
    frequency:     3.5809772876
  - # 28
    frequency:     3.5862503574
  - # 29
    frequency:     3.7745061720
  - # 30
    frequency:     3.7755743053
  - # 31
    frequency:     3.7786192024
  - # 32
    frequency:     3.9936371043
  - # 33
    frequency:     4.1805512208
  - # 34
    frequency:     4.1972887408
  - # 35
    frequency:     4.2095793403
  - # 36
    frequency:     4.3242192413
  - # 37
    frequency:     4.3419003361
  - # 38
    frequency:     4.4149885675
  - # 39
    frequency:     4.4161071668
  - # 40
    frequency:     4.4175382826
  - # 41
    frequency:     4.4879438785
  - # 42
    frequency:     4.5535964320
  - # 43
    frequency:     4.7161258589
  - # 44
    frequency:     4.7469982457
  - # 45
    frequency:     4.7545860800
  - # 46
    frequency:     4.7684337643
  - # 47
    frequency:     4.7686486406
  - # 48
    frequency:     5.2201386702
  - # 49
    frequency:     6.5487866614
  - # 50
    frequency:     6.5738427682
  - # 51
    frequency:     6.7273072752
  - # 52
    frequency:     6.7293648127
  - # 53
    frequency:     6.7382592724
  - # 54
    frequency:     6.7879502452
  - # 55
    frequency:     6.8839519382
  - # 56
    frequency:     6.8848421213
  - # 57
    frequency:     6.9909139738
  - # 58
    frequency:     7.0017752672
  - # 59
    frequency:     7.0390786141
  - # 60
    frequency:     7.0415595604
  - # 61
    frequency:     7.0907299131
  - # 62
    frequency:     7.0910681929
  - # 63
    frequency:     7.2433894798
  - # 64
    frequency:     7.3153835372
  - # 65
    frequency:     7.3556958154
  - # 66
    frequency:     7.4330519854
  - # 67
    frequency:     7.4522249555
  - # 68
    frequency:     7.4546965149
  - # 69
    frequency:     7.5580426909
  - # 70
    frequency:     7.9799832004
  - # 71
    frequency:     7.9933103022
  - # 72
    frequency:     8.5120235091

- q-position: [    0.1328125,    0.0078125,    0.0000000 ]
  weight: 4    
  band:
  - # 1
    frequency:    -0.3831236716
  - # 2
    frequency:     0.3886656177
  - # 3
    frequency:     0.8403918404
  - # 4
    frequency:     1.7515134344
  - # 5
    frequency:     1.7539440806
  - # 6
    frequency:     1.7722943708
  - # 7
    frequency:     1.7826730935
  - # 8
    frequency:     2.2714898671
  - # 9
    frequency:     2.2790835171
  - # 10
    frequency:     2.3000819256
  - # 11
    frequency:     2.4084621596
  - # 12
    frequency:     2.4642206537
  - # 13
    frequency:     2.5547940226
  - # 14
    frequency:     2.7348149431
  - # 15
    frequency:     2.7589478739
  - # 16
    frequency:     2.7821309126
  - # 17
    frequency:     3.0078459540
  - # 18
    frequency:     3.0247004155
  - # 19
    frequency:     3.0289317838
  - # 20
    frequency:     3.1041413968
  - # 21
    frequency:     3.2073999419
  - # 22
    frequency:     3.2200227722
  - # 23
    frequency:     3.2206082184
  - # 24
    frequency:     3.3127807290
  - # 25
    frequency:     3.3785827534
  - # 26
    frequency:     3.4090816034
  - # 27
    frequency:     3.5864218191
  - # 28
    frequency:     3.5917829524
  - # 29
    frequency:     3.7753756030
  - # 30
    frequency:     3.7799720296
  - # 31
    frequency:     3.7852244529
  - # 32
    frequency:     3.9776798739
  - # 33
    frequency:     4.1870965000
  - # 34
    frequency:     4.1986029182
  - # 35
    frequency:     4.2107149438
  - # 36
    frequency:     4.3206054207
  - # 37
    frequency:     4.3371948518
  - # 38
    frequency:     4.4136846810
  - # 39
    frequency:     4.4148957156
  - # 40
    frequency:     4.4154167193
  - # 41
    frequency:     4.4793559686
  - # 42
    frequency:     4.5554188094
  - # 43
    frequency:     4.7109356466
  - # 44
    frequency:     4.7432402494
  - # 45
    frequency:     4.7507450387
  - # 46
    frequency:     4.7616778308
  - # 47
    frequency:     4.7618987987
  - # 48
    frequency:     5.2108418409
  - # 49
    frequency:     6.5494699125
  - # 50
    frequency:     6.5783015158
  - # 51
    frequency:     6.7283826253
  - # 52
    frequency:     6.7306784658
  - # 53
    frequency:     6.7411503524
  - # 54
    frequency:     6.7763519663
  - # 55
    frequency:     6.8818720490
  - # 56
    frequency:     6.8825396141
  - # 57
    frequency:     7.0000362667
  - # 58
    frequency:     7.0050887780
  - # 59
    frequency:     7.0409092404
  - # 60
    frequency:     7.0436817661