phonopy:
  version: 1.11.12
  configuration:
    atom_name: "Te Mo"
    dim: "1 1 1"
    mp: "64 64 1"
    force_constants: "read"
    tprop: ".true."

supercell_matrix:
- [   1,   0,   0 ]
- [   0,   1,   0 ]
- [   0,   0,   1 ]

primitive_cell:
  lattice:
  - [     7.102000000000000,     0.000000000000000,     0.000000000000000 ] # a
  - [     0.000000000000000,    12.298000000000000,     0.000000000000000 ] # b
  - [     0.000000000000000,     0.000000000000000,    16.000000000000000 ] # c
  points:
  - symbol: Te # 1
    coordinates: [  0.000000000000000,  0.333329809725159,  0.112828750000000 ]
    mass: 127.600000
  - symbol: Te # 2
    coordinates: [  0.500000000000000,  0.333329809725159,  0.112828750000000 ]
    mass: 127.600000
  - symbol: Te # 3
    coordinates: [  0.000000000000000,  0.833329809725159,  0.112828750000000 ]
    mass: 127.600000
  - symbol: Te # 4
    coordinates: [  0.500000000000000,  0.833329809725159,  0.112828750000000 ]
    mass: 127.600000
  - symbol: Te # 5
    coordinates: [  0.000000000000000,  0.333329809725159,  0.887171250000000 ]
    mass: 127.600000
  - symbol: Te # 6
    coordinates: [  0.500000000000000,  0.333329809725159,  0.887171250000000 ]
    mass: 127.600000
  - symbol: Te # 7
    coordinates: [  0.000000000000000,  0.833329809725159,  0.887171250000000 ]
    mass: 127.600000
  - symbol: Te # 8
    coordinates: [  0.500000000000000,  0.833329809725159,  0.887171250000000 ]
    mass: 127.600000
  - symbol: Te # 9
    coordinates: [  0.250000000000000,  0.083328996584810,  0.112827500000000 ]
    mass: 127.600000
  - symbol: Te # 10
    coordinates: [  0.750000000000000,  0.083328996584810,  0.112827500000000 ]
    mass: 127.600000
  - symbol: Te # 11
    coordinates: [  0.250000000000000,  0.583328996584811,  0.112827500000000 ]
    mass: 127.600000
  - symbol: Te # 12
    coordinates: [  0.750000000000000,  0.583328996584811,  0.112827500000000 ]
    mass: 127.600000
  - symbol: Te # 13
    coordinates: [  0.250000000000000,  0.083328996584810,  0.887172500000000 ]
    mass: 127.600000
  - symbol: Te # 14
    coordinates: [  0.750000000000000,  0.083328996584810,  0.887172500000000 ]
    mass: 127.600000
  - symbol: Te # 15
    coordinates: [  0.250000000000000,  0.583328996584811,  0.887172500000000 ]
    mass: 127.600000
  - symbol: Te # 16
    coordinates: [  0.750000000000000,  0.583328996584811,  0.887172500000000 ]
    mass: 127.600000
  - symbol: Mo # 17
    coordinates: [  0.250000000000000,  0.250007318263132,  0.000000000000000 ]
    mass: 95.960000
  - symbol: Mo # 18
    coordinates: [  0.750000000000000,  0.250007318263132,  0.000000000000000 ]
    mass: 95.960000
  - symbol: Mo # 19
    coordinates: [  0.250000000000000,  0.750007318263132,  0.000000000000000 ]
    mass: 95.960000
  - symbol: Mo # 20
    coordinates: [  0.750000000000000,  0.750007318263132,  0.000000000000000 ]
    mass: 95.960000
  - symbol: Mo # 21
    coordinates: [  0.000000000000000,  0.000004065701740,  0.000000000000000 ]
    mass: 95.960000
  - symbol: Mo # 22
    coordinates: [  0.500000000000000,  0.000004065701740,  0.000000000000000 ]
    mass: 95.960000
  - symbol: Mo # 23
    coordinates: [  0.000000000000000,  0.500004065701740,  0.000000000000000 ]
    mass: 95.960000
  - symbol: Mo # 24
    coordinates: [  0.500000000000000,  0.500004065701740,  0.000000000000000 ]
    mass: 95.960000
  reciprocal_lattice: # without 2pi
  - [     0.140805406927626,     0.000000000000000,     0.000000000000000 ] # a*
  - [     0.000000000000000,     0.081314034802407,     0.000000000000000 ] # b*
  - [     0.000000000000000,     0.000000000000000,     0.062500000000000 ] # c*

unit_cell:
  lattice:
  - [     7.102000000000000,     0.000000000000000,     0.000000000000000 ] # a
  - [     0.000000000000000,    12.298000000000000,     0.000000000000000 ] # b
  - [     0.000000000000000,     0.000000000000000,    16.000000000000000 ] # c
  points:
  - symbol: Te # 1
    coordinates: [  0.000000000000000,  0.333329809725159,  0.112828750000000 ]
    mass: 127.600000
    reduced_to: 1
  - symbol: Te # 2
    coordinates: [  0.500000000000000,  0.333329809725159,  0.112828750000000 ]
    mass: 127.600000
    reduced_to: 2
  - symbol: Te # 3
    coordinates: [  0.000000000000000,  0.833329809725159,  0.112828750000000 ]
    mass: 127.600000
    reduced_to: 3
  - symbol: Te # 4
    coordinates: [  0.500000000000000,  0.833329809725159,  0.112828750000000 ]
    mass: 127.600000
    reduced_to: 4
  - symbol: Te # 5
    coordinates: [  0.000000000000000,  0.333329809725159,  0.887171250000000 ]
    mass: 127.600000
    reduced_to: 5
  - symbol: Te # 6
    coordinates: [  0.500000000000000,  0.333329809725159,  0.887171250000000 ]
    mass: 127.600000
    reduced_to: 6
  - symbol: Te # 7
    coordinates: [  0.000000000000000,  0.833329809725159,  0.887171250000000 ]
    mass: 127.600000
    reduced_to: 7
  - symbol: Te # 8
    coordinates: [  0.500000000000000,  0.833329809725159,  0.887171250000000 ]
    mass: 127.600000
    reduced_to: 8
  - symbol: Te # 9
    coordinates: [  0.250000000000000,  0.083328996584810,  0.112827500000000 ]
    mass: 127.600000
    reduced_to: 9
  - symbol: Te # 10
    coordinates: [  0.750000000000000,  0.083328996584810,  0.112827500000000 ]
    mass: 127.600000
    reduced_to: 10
  - symbol: Te # 11
    coordinates: [  0.250000000000000,  0.583328996584811,  0.112827500000000 ]
    mass: 127.600000
    reduced_to: 11
  - symbol: Te # 12
    coordinates: [  0.750000000000000,  0.583328996584811,  0.112827500000000 ]
    mass: 127.600000
    reduced_to: 12
  - symbol: Te # 13
    coordinates: [  0.250000000000000,  0.083328996584810,  0.887172500000000 ]
    mass: 127.600000
    reduced_to: 13
  - symbol: Te # 14
    coordinates: [  0.750000000000000,  0.083328996584810,  0.887172500000000 ]
    mass: 127.600000
    reduced_to: 14
  - symbol: Te # 15
    coordinates: [  0.250000000000000,  0.583328996584811,  0.887172500000000 ]
    mass: 127.600000
    reduced_to: 15
  - symbol: Te # 16
    coordinates: [  0.750000000000000,  0.583328996584811,  0.887172500000000 ]
    mass: 127.600000
    reduced_to: 16
  - symbol: Mo # 17
    coordinates: [  0.250000000000000,  0.250007318263132,  0.000000000000000 ]
    mass: 95.960000
    reduced_to: 17
  - symbol: Mo # 18
    coordinates: [  0.750000000000000,  0.250007318263132,  0.000000000000000 ]
    mass: 95.960000
    reduced_to: 18
  - symbol: Mo # 19
    coordinates: [  0.250000000000000,  0.750007318263132,  0.000000000000000 ]
    mass: 95.960000
    reduced_to: 19
  - symbol: Mo # 20
    coordinates: [  0.750000000000000,  0.750007318263132,  0.000000000000000 ]
    mass: 95.960000
    reduced_to: 20
  - symbol: Mo # 21
    coordinates: [  0.000000000000000,  0.000004065701740,  0.000000000000000 ]
    mass: 95.960000
    reduced_to: 21
  - symbol: Mo # 22
    coordinates: [  0.500000000000000,  0.000004065701740,  0.000000000000000 ]
    mass: 95.960000
    reduced_to: 22
  - symbol: Mo # 23
    coordinates: [  0.000000000000000,  0.500004065701740,  0.000000000000000 ]
    mass: 95.960000
    reduced_to: 23
  - symbol: Mo # 24
    coordinates: [  0.500000000000000,  0.500004065701740,  0.000000000000000 ]
    mass: 95.960000
    reduced_to: 24

supercell:
  lattice:
  - [     7.102000000000000,     0.000000000000000,     0.000000000000000 ] # a
  - [     0.000000000000000,    12.298000000000000,     0.000000000000000 ] # b
  - [     0.000000000000000,     0.000000000000000,    16.000000000000000 ] # c
  points:
  - symbol: Te # 1
    coordinates: [  0.000000000000000,  0.333329809725159,  0.112828750000000 ]
    mass: 127.600000
    reduced_to: 1
  - symbol: Te # 2
    coordinates: [  0.500000000000000,  0.333329809725159,  0.112828750000000 ]
    mass: 127.600000
    reduced_to: 2
  - symbol: Te # 3
    coordinates: [  0.000000000000000,  0.833329809725159,  0.112828750000000 ]
    mass: 127.600000
    reduced_to: 3
  - symbol: Te # 4
    coordinates: [  0.500000000000000,  0.833329809725159,  0.112828750000000 ]
    mass: 127.600000
    reduced_to: 4
  - symbol: Te # 5
    coordinates: [  0.000000000000000,  0.333329809725159,  0.887171250000000 ]
    mass: 127.600000
    reduced_to: 5
  - symbol: Te # 6
    coordinates: [  0.500000000000000,  0.333329809725159,  0.887171250000000 ]
    mass: 127.600000
    reduced_to: 6
  - symbol: Te # 7
    coordinates: [  0.000000000000000,  0.833329809725159,  0.887171250000000 ]
    mass: 127.600000
    reduced_to: 7
  - symbol: Te # 8
    coordinates: [  0.500000000000000,  0.833329809725159,  0.887171250000000 ]
    mass: 127.600000
    reduced_to: 8
  - symbol: Te # 9
    coordinates: [  0.250000000000000,  0.083328996584810,  0.112827500000000 ]
    mass: 127.600000
    reduced_to: 9
  - symbol: Te # 10
    coordinates: [  0.750000000000000,  0.083328996584810,  0.112827500000000 ]
    mass: 127.600000
    reduced_to: 10
  - symbol: Te # 11
    coordinates: [  0.250000000000000,  0.583328996584811,  0.112827500000000 ]
    mass: 127.600000
    reduced_to: 11
  - symbol: Te # 12
    coordinates: [  0.750000000000000,  0.583328996584811,  0.112827500000000 ]
    mass: 127.600000
    reduced_to: 12
  - symbol: Te # 13
    coordinates: [  0.250000000000000,  0.083328996584810,  0.887172500000000 ]
    mass: 127.600000
    reduced_to: 13
  - symbol: Te # 14
    coordinates: [  0.750000000000000,  0.083328996584810,  0.887172500000000 ]
    mass: 127.600000
    reduced_to: 14
  - symbol: Te # 15
    coordinates: [  0.250000000000000,  0.583328996584811,  0.887172500000000 ]
    mass: 127.600000
    reduced_to: 15
  - symbol: Te # 16
    coordinates: [  0.750000000000000,  0.583328996584811,  0.887172500000000 ]
    mass: 127.600000
    reduced_to: 16
  - symbol: Mo # 17
    coordinates: [  0.250000000000000,  0.250007318263132,  0.000000000000000 ]
    mass: 95.960000
    reduced_to: 17
  - symbol: Mo # 18
    coordinates: [  0.750000000000000,  0.250007318263132,  0.000000000000000 ]
    mass: 95.960000
    reduced_to: 18
  - symbol: Mo # 19
    coordinates: [  0.250000000000000,  0.750007318263132,  0.000000000000000 ]
    mass: 95.960000
    reduced_to: 19
  - symbol: Mo # 20
    coordinates: [  0.750000000000000,  0.750007318263132,  0.000000000000000 ]
    mass: 95.960000
    reduced_to: 20
  - symbol: Mo # 21
    coordinates: [  0.000000000000000,  0.000004065701740,  0.000000000000000 ]
    mass: 95.960000
    reduced_to: 21
  - symbol: Mo # 22
    coordinates: [  0.500000000000000,  0.000004065701740,  0.000000000000000 ]
    mass: 95.960000
    reduced_to: 22
  - symbol: Mo # 23
    coordinates: [  0.000000000000000,  0.500004065701740,  0.000000000000000 ]
    mass: 95.960000
    reduced_to: 23
  - symbol: Mo # 24
    coordinates: [  0.500000000000000,  0.500004065701740,  0.000000000000000 ]
    mass: 95.960000
    reduced_to: 24
