# Thermal properties / unit cell (natom)

unit:
  temperature:   K
  free_energy:   kJ/mol
  entropy:       J/K/mol
  heat_capacity: J/K/mol

natom:    24
num_modes: 294912
num_integrated_modes: 294484

zero_point_energy:      66.1359259
high_T_entropy:       2440.8901512

thermal_properties:
- temperature:         0.0000000
  free_energy:        66.1359259
  entropy:             0.0000000
  heat_capacity:       0.0000000
  energy:             66.1359259

- temperature:        10.0000000
  free_energy:        66.1227238
  entropy:             3.8812299
  heat_capacity:       7.5167503
  energy:             66.1615361

- temperature:        20.0000000
  free_energy:        66.0318754
  entropy:            15.9172654
  heat_capacity:      34.4394623
  energy:             66.3502208

- temperature:        30.0000000
  free_energy:        65.7681042
  entropy:            38.6202654
  heat_capacity:      83.5474503
  energy:             66.9267121

- temperature:        40.0000000
  free_energy:        65.2286153
  entropy:            70.5314801
  heat_capacity:     141.5147349
  energy:             68.0498745

- temperature:        50.0000000
  free_energy:        64.3380209
  entropy:           108.3084481
  heat_capacity:     198.6113433
  energy:             69.7534433

- temperature:        60.0000000
  free_energy:        63.0520609
  entropy:           149.2316550
  heat_capacity:     250.9423849
  energy:             72.0059602

- temperature:        70.0000000
  free_energy:        61.3490754
  entropy:           191.4697800
  heat_capacity:     297.2085062
  energy:             74.7519600

- temperature:        80.0000000
  free_energy:        59.2222821
  entropy:           233.8371213
  heat_capacity:     337.2291811
  energy:             77.9292518

- temperature:        90.0000000
  free_energy:        56.6744338
  entropy:           275.5838431
  heat_capacity:     371.3890922
  energy:             81.4769797

- temperature:       100.0000000
  free_energy:        53.7142140
  entropy:           316.2544127
  heat_capacity:     400.3377515
  energy:             85.3396552

- temperature:       110.0000000
  free_energy:        50.3538071
  entropy:           355.5907776
  heat_capacity:     424.8026813
  energy:             89.4687927

- temperature:       120.0000000
  free_energy:        46.6072806
  entropy:           393.4652281
  heat_capacity:     445.4847205
  energy:             93.8231080

- temperature:       130.0000000
  free_energy:        42.4895266
  entropy:           429.8342083
  heat_capacity:     463.0096563
  energy:             98.3679736

- temperature:       140.0000000
  free_energy:        38.0155871
  entropy:           464.7070420
  heat_capacity:     477.9131867
  energy:            103.0745730

- temperature:       150.0000000
  free_energy:        33.2002370
  entropy:           498.1250897
  heat_capacity:     490.6430122
  energy:            107.9190004

- temperature:       160.0000000
  free_energy:        28.0577366
  entropy:           530.1480566
  heat_capacity:     501.5683392
  energy:            112.8814256

- temperature:       170.0000000
  free_energy:        22.6016959
  entropy:           560.8451209
  heat_capacity:     510.9916026
  energy:            117.9453665

- temperature:       180.0000000
  free_energy:        16.8450105
  entropy:           590.2892721
  heat_capacity:     519.1599171
  energy:            123.0970795

- temperature:       190.0000000
  free_energy:        10.7998424
  entropy:           618.5537707
  heat_capacity:     526.2752333
  energy:            128.3250589

- temperature:       200.0000000
  free_energy:         4.4776290
  entropy:           645.7099982
  heat_capacity:     532.5029126
  energy:            133.6196287

- temperature:       210.0000000
  free_energy:        -2.1108912
  entropy:           671.8262140
  heat_capacity:     537.9787730
  energy:            138.9726137

- temperature:       220.0000000
  free_energy:        -8.9556439
  entropy:           696.9668972
  heat_capacity:     542.8147908
  energy:            144.3770734

- temperature:       230.0000000
  free_energy:       -16.0471793
  entropy:           721.1924640
  heat_capacity:     547.1036757
  energy:            149.8270875

- temperature:       240.0000000
  free_energy:       -23.3766310
  entropy:           744.5592190
  heat_capacity:     550.9225293
  energy:            155.3175816

- temperature:       250.0000000
  free_energy:       -30.9356757
  entropy:           767.1194511
  heat_capacity:     554.3357660
  energy:            160.8441871

- temperature:       260.0000000
  free_energy:       -38.7164935
  entropy:           788.9216134
  heat_capacity:     557.3974484
  energy:            166.4031260

- temperature:       270.0000000
  free_energy:       -46.7117309
  entropy:           810.0105475
  heat_capacity:     560.1531574
  energy:            171.9911170

- temperature:       280.0000000
  free_energy:       -54.9144656
  entropy:           830.4277291
  heat_capacity:     562.6414946
  energy:            177.6052985

- temperature:       290.0000000
  free_energy:       -63.3181745
  entropy:           850.2115174
  heat_capacity:     564.8952930
  energy:            183.2431656

- temperature:       300.0000000
  free_energy:       -71.9167032
  entropy:           869.3973992
  heat_capacity:     566.9425977
  energy:            188.9025165

- temperature:       310.0000000
  free_energy:       -80.7042392
  entropy:           888.0182224
  heat_capacity:     568.8074617
  energy:            194.5814098

- temperature:       320.0000000
  free_energy:       -89.6752858
  entropy:           906.1044150
  heat_capacity:     570.5105952
  energy:            200.2781270

- temperature:       330.0000000
  free_energy:       -98.8246397
  entropy:           923.6841883
  heat_capacity:     572.0698982
  energy:            205.9911425

- temperature:       340.0000000
  free_energy:      -108.1473690
  entropy:           940.7837250
  heat_capacity:     573.5008984
  energy:            211.7190975

- temperature:       350.0000000
  free_energy:      -117.6387946
  entropy:           957.4273505
  heat_capacity:     574.8171123
  energy:            217.4607780

- temperature:       360.0000000
  free_energy:      -127.2944719
  entropy:           973.6376904
  heat_capacity:     576.0303459
  energy:            223.2150966

- temperature:       370.0000000
  free_energy:      -137.1101745
  entropy:           989.4358131
  heat_capacity:     577.1509442
  energy:            228.9810763

- temperature:       380.0000000
  free_energy:      -147.0818797
  entropy:          1004.8413602
  heat_capacity:     578.1880002
  energy:            234.7578372

- temperature:       390.0000000
  free_energy:      -157.2057544
  entropy:          1019.8726643
  heat_capacity:     579.1495302
  energy:            240.5445847

- temperature:       400.0000000
  free_energy:      -167.4781428
  entropy:          1034.5468562
  heat_capacity:     580.0426218
  energy:            246.3405997

- temperature:       410.0000000
  free_energy:      -177.8955547
  entropy:          1048.8799626
  heat_capacity:     580.8735582
  energy:            252.1452300

- temperature:       420.0000000
  free_energy:      -188.4546552
  entropy:          1062.8869943
  heat_capacity:     581.6479248
  energy:            257.9578824

- temperature:       430.0000000
  free_energy:      -199.1522547
  entropy:          1076.5820262
  heat_capacity:     582.3706988
  energy:            263.7780166

- temperature:       440.0000000
  free_energy:      -209.9852999
  entropy:          1089.9782707
  heat_capacity:     583.0463265
  energy:            269.6051393

- temperature:       450.0000000
  free_energy:      -220.9508656
  entropy:          1103.0881441
  heat_capacity:     583.6787892
  energy:            275.4387993

- temperature:       460.0000000
  free_energy:      -232.0461472
  entropy:          1115.9233267
  heat_capacity:     584.2716600
  energy:            281.2785831

- temperature:       470.0000000
  free_energy:      -243.2684532
  entropy:          1128.4948180
  heat_capacity:     584.8281523
  energy:            287.1241112

- temperature:       480.0000000
  free_energy:      -254.6151992
  entropy:          1140.8129870
  heat_capacity:     585.3511625
  energy:            292.9750346

- temperature:       490.0000000
  free_energy:      -266.0839012
  entropy:          1152.8876181
  heat_capacity:     585.8433062
  energy:            298.8310316

- temperature:       500.0000000
  free_energy:      -277.6721706
  entropy:          1164.7279527
  heat_capacity:     586.3069502
  energy:            304.6918057

- temperature:       510.0000000
  free_energy:      -289.3777085
  entropy:          1176.3427280
  heat_capacity:     586.7442400
  energy:            310.5570828

- temperature:       520.0000000
  free_energy:      -301.1983009
  entropy:          1187.7402118
  heat_capacity:     587.1571244
  energy:            316.4266092

- temperature:       530.0000000
  free_energy:      -313.1318146
  entropy:          1198.9282348
  heat_capacity:     587.5473760
  energy:            322.3001499

- temperature:       540.0000000
  free_energy:      -325.1761922
  entropy:          1209.9142202
  heat_capacity:     587.9166106
  energy:            328.1774867

- temperature:       550.0000000
  free_energy:      -337.3294490
  entropy:          1220.7052109
  heat_capacity:     588.2663028
  energy:            334.0584169

- temperature:       560.0000000
  free_energy:      -349.5896688
  entropy:          1231.3078944
  heat_capacity:     588.5978010
  energy:            339.9427521

- temperature:       570.0000000
  free_energy:      -361.9550004
  entropy:          1241.7286261
  heat_capacity:     588.9123397
  energy:            345.8303164

- temperature:       580.0000000
  free_energy:      -374.4236550
  entropy:          1251.9734502
  heat_capacity:     589.2110510
  energy:            351.7209461

- temperature:       590.0000000
  free_energy:      -386.9939023
  entropy:          1262.0481195
  heat_capacity:     589.4949746
  energy:            357.6144882

- temperature:       600.0000000
  free_energy:      -399.6640685
  entropy:          1271.9581134
  heat_capacity:     589.7650664
  energy:            363.5107995

- temperature:       610.0000000
  free_energy:      -412.4325331
  entropy:          1281.7086548
  heat_capacity:     590.0222067
  energy:            369.4097464

- temperature:       620.0000000
  free_energy:      -425.2977267
  entropy:          1291.3047257
  heat_capacity:     590.2672072
  energy:            375.3112032

- temperature:       630.0000000
  free_energy:      -438.2581286
  entropy:          1300.7510811
  heat_capacity:     590.5008172
  energy:            381.2150525

- temperature:       640.0000000
  free_energy:      -451.3122644
  entropy:          1310.0522630
  heat_capacity:     590.7237295
  energy:            387.1211839

- temperature:       650.0000000
  free_energy:      -464.4587044
  entropy:          1319.2126123
  heat_capacity:     590.9365848
  energy:            393.0294936

- temperature:       660.0000000
  free_energy:      -477.6960611
  entropy:          1328.2362805
  heat_capacity:     591.1399770
  energy:            398.9398841

- temperature:       670.0000000
  free_energy:      -491.0229877
  entropy:          1337.1272405
  heat_capacity:     591.3344570
  energy:            404.8522634

- temperature:       680.0000000
  free_energy:      -504.4381762
  entropy:          1345.8892962
  heat_capacity:     591.5205362
  energy:            410.7665452

- temperature:       690.0000000
  free_energy:      -517.9403561
  entropy:          1354.5260925
  heat_capacity:     591.6986899
  energy:            416.6826478

- temperature:       700.0000000
  free_energy:      -531.5282922
  entropy:          1363.0411232
  heat_capacity:     591.8693605
  energy:            422.6004941

- temperature:       710.0000000
  free_energy:      -545.2007838
  entropy:          1371.4377398
  heat_capacity:     592.0329601
  energy:            428.5200114

- temperature:       720.0000000
  free_energy:      -558.9566630
  entropy:          1379.7191583
  heat_capacity:     592.1898727
  energy:            434.4411310

- temperature:       730.0000000
  free_energy:      -572.7947933
  entropy:          1387.8884672
  heat_capacity:     592.3404567
  energy:            440.3637878

- temperature:       740.0000000
  free_energy:      -586.7140686
  entropy:          1395.9486334
  heat_capacity:     592.4850471
  energy:            446.2879201

- temperature:       750.0000000
  free_energy:      -600.7134117
  entropy:          1403.9025086
  heat_capacity:     592.6239569
  energy:            452.2134698

- temperature:       760.0000000
  free_energy:      -614.7917736
  entropy:          1411.7528354
  heat_capacity:     592.7574789
  energy:            458.1403813

- temperature:       770.0000000
  free_energy:      -628.9481321
  entropy:          1419.5022524
  heat_capacity:     592.8858876
  energy:            464.0686023

- temperature:       780.0000000
  free_energy:      -643.1814908
  entropy:          1427.1532995
  heat_capacity:     593.0094400
  energy:            469.9980829

- temperature:       790.0000000
  free_energy:      -657.4908783
  entropy:          1434.7084228
  heat_capacity:     593.1283774
  energy:            475.9287757

- temperature:       800.0000000
  free_energy:      -671.8753473
  entropy:          1442.1699789
  heat_capacity:     593.2429262
  energy:            481.8606358

- temperature:       810.0000000
  free_energy:      -686.3339736
  entropy:          1449.5402394
  heat_capacity:     593.3532992
  energy:            487.7936203

- temperature:       820.0000000
  free_energy:      -700.8658551
  entropy:          1456.8213947
  heat_capacity:     593.4596965
  energy:            493.7276885

- temperature:       830.0000000
  free_energy:      -715.4701115
  entropy:          1464.0155580
  heat_capacity:     593.5623063
  energy:            499.6628016

- temperature:       840.0000000
  free_energy:      -730.1458831
  entropy:          1471.1247687
  heat_capacity:     593.6613058
  energy:            505.5989226

- temperature:       850.0000000
  free_energy:      -744.8923303
  entropy:          1478.1509959
  heat_capacity:     593.7568621
  energy:            511.5360163

- temperature:       860.0000000
  free_energy:      -759.7086328
  entropy:          1485.0961415
  heat_capacity:     593.8491328
  energy:            517.4740489

- temperature:       870.0000000
  free_energy:      -774.5939890
  entropy:          1491.9620430
  heat_capacity:     593.9382664
  energy:            523.4129885

- temperature:       880.0000000
  free_energy:      -789.5476154
  entropy:          1498.7504769
  heat_capacity:     594.0244032
  energy:            529.3528043

- temperature:       890.0000000
  free_energy:      -804.5687460
  entropy:          1505.4631607
  heat_capacity:     594.1076758
  energy:            535.2934670

- temperature:       900.0000000
  free_energy:      -819.6566317
  entropy:          1512.1017559
  heat_capacity:     594.1882097
  energy:            541.2349486

- temperature:       910.0000000
  free_energy:      -834.8105395
  entropy:          1518.6678703
  heat_capacity:     594.2661233
  energy:            547.1772224

- temperature:       920.0000000
  free_energy:      -850.0297527
  entropy:          1525.1630602
  heat_capacity:     594.3415289
  energy:            553.1202628

- temperature:       930.0000000
  free_energy:      -865.3135694
  entropy:          1531.5888327
  heat_capacity:     594.4145328
  energy:            559.0640450

- temperature:       940.0000000
  free_energy:      -880.6613028
  entropy:          1537.9466474
  heat_capacity:     594.4852358
  energy:            565.0085457

- temperature:       950.0000000
  free_energy:      -896.0722805
  entropy:          1544.2379188
  heat_capacity:     594.5537333
  energy:            570.9537424

- temperature:       960.0000000
  free_energy:      -911.5458439
  entropy:          1550.4640180
  heat_capacity:     594.6201160
  energy:            576.8996134

- temperature:       970.0000000
  free_energy:      -927.0813480
  entropy:          1556.6262742
  heat_capacity:     594.6844699
  energy:            582.8461379

- temperature:       980.0000000
  free_energy:      -942.6781609
  entropy:          1562.7259767
  heat_capacity:     594.7468768
  energy:            588.7932963

- temperature:       990.0000000
  free_energy:      -958.3356632
  entropy:          1568.7643763
  heat_capacity:     594.8074142
  energy:            594.7410692

- temperature:      1000.0000000
  free_energy:      -974.0532481
  entropy:          1574.7426867
  heat_capacity:     594.8661560
  energy:            600.6894386
