MoTe2 with Spin orbit Phonon calculatio 
           1
     7.102000    0.000000    0.000000
     0.000000   12.298000    0.000000
     0.000000    0.000000   16.000000
   Te   Mo
  16   8
Direct configuration=     1
   0.00000000  0.33332981  0.11282875
   0.50000000  0.33332981  0.11282875
   0.00000000  0.83332981  0.11282875
   0.50000000  0.83332981  0.11282875
   0.00000000  0.33332981  0.88717125
   0.50000000  0.33332981  0.88717125
   0.00000000  0.83332981  0.88717125
   0.50000000  0.83332981  0.88717125
   0.25000000  0.08332900  0.11282750
   0.75000000  0.08332900  0.11282750
   0.25000000  0.58332900  0.11282750
   0.75000000  0.58332900  0.11282750
   0.25000000  0.08332900  0.88717250
   0.75000000  0.08332900  0.88717250
   0.25000000  0.58332900  0.88717250
   0.75000000  0.58332900  0.88717250
   0.25000000  0.25000732  0.00000000
   0.75000000  0.25000732  0.00000000
   0.25000000  0.75000732  0.00000000
   0.75000000  0.75000732  0.00000000
   0.00000000  0.00000407  0.00000000
   0.50000000  0.00000407  0.00000000
   0.00000000  0.50000407  0.00000000
   0.50000000  0.50000407  0.00000000
