   6   6   0   0
  0.5861956E+02  0.3452000E-09  0.6368000E-09  0.1600000E-08  0.5000000E-15
  1.000000000000000E-004
  CAR 
 2D MoTe2 in a box                       
      4.32560265    -13.26181393  301      0.38605091      1.00000000
    -13.262  0.0000E+00  0.0000E+00
    -13.203  0.0000E+00  0.0000E+00
    -13.145  0.0000E+00  0.0000E+00
    -13.086  0.0000E+00  0.0000E+00
    -13.027  0.0000E+00  0.0000E+00
    -12.969  0.1664E-06  0.9752E-08
    -12.910  0.5149E-06  0.3994E-07
    -12.851  0.1314E-05  0.1169E-06
    -12.793  0.3508E-05  0.3226E-06
    -12.734  0.9287E-05  0.8671E-06
    -12.676  0.2394E-04  0.2270E-05
    -12.617  0.6109E-04  0.5852E-05
    -12.558  0.1471E-03  0.1448E-04
    -12.500  0.3162E-03  0.3301E-04
    -12.441  0.5640E-03  0.6608E-04
    -12.382  0.8095E-03  0.1135E-03
    -12.324  0.9749E-03  0.1707E-03
    -12.265  0.1070E-02  0.2334E-03
    -12.207  0.1121E-02  0.2991E-03
    -12.148  0.1135E-02  0.3656E-03
    -12.089  0.1159E-02  0.4336E-03
    -12.031  0.1210E-02  0.5045E-03
    -11.972  0.1231E-02  0.5767E-03
    -11.913  0.1214E-02  0.6479E-03
    -11.855  0.1216E-02  0.7192E-03
    -11.796  0.1264E-02  0.7933E-03
    -11.738  0.1337E-02  0.8718E-03
    -11.679  0.1452E-02  0.9569E-03
    -11.620  0.1700E-02  0.1057E-02
    -11.562  0.2164E-02  0.1184E-02
    -11.503  0.2735E-02  0.1344E-02
    -11.444  0.3113E-02  0.1526E-02
    -11.386  0.3185E-02  0.1713E-02
    -11.327  0.3163E-02  0.1899E-02
    -11.269  0.3210E-02  0.2087E-02
    -11.210  0.3278E-02  0.2279E-02
    -11.151  0.3327E-02  0.2474E-02
    -11.093  0.3346E-02  0.2670E-02
    -11.034  0.3300E-02  0.2864E-02
    -10.975  0.3252E-02  0.3055E-02
    -10.917  0.3372E-02  0.3253E-02
    -10.858  0.3692E-02  0.3469E-02
    -10.800  0.4176E-02  0.3714E-02
    -10.741  0.4737E-02  0.3992E-02
    -10.682  0.5234E-02  0.4299E-02
    -10.624  0.5703E-02  0.4633E-02
    -10.565  0.6250E-02  0.5000E-02
    -10.506  0.6618E-02  0.5388E-02
    -10.448  0.6328E-02  0.5759E-02
    -10.389  0.5493E-02  0.6081E-02
    -10.331  0.4685E-02  0.6356E-02
    -10.272  0.4211E-02  0.6603E-02
    -10.213  0.4043E-02  0.6840E-02
    -10.155  0.3957E-02  0.7072E-02
    -10.096  0.3864E-02  0.7299E-02
    -10.037  0.3746E-02  0.7519E-02
     -9.979  0.3316E-02  0.7714E-02
     -9.920  0.2411E-02  0.7855E-02
     -9.862  0.1378E-02  0.7936E-02
     -9.803  0.6469E-03  0.7974E-02
     -9.744  0.2683E-03  0.7990E-02
     -9.686  0.1035E-03  0.7996E-02
     -9.627  0.3916E-04  0.7999E-02
     -9.568  0.1320E-04  0.8000E-02
     -9.510  0.3151E-05  0.8000E-02
     -9.451  0.0000E+00  0.8000E-02
     -9.393  0.0000E+00  0.8000E-02
     -9.334  0.0000E+00  0.8000E-02
     -9.275  0.0000E+00  0.8000E-02
     -9.217  0.0000E+00  0.8000E-02
     -9.158  0.0000E+00  0.8000E-02
     -9.099  0.0000E+00  0.8000E-02
     -9.041  0.0000E+00  0.8000E-02
     -8.982  0.0000E+00  0.8000E-02
     -8.924  0.0000E+00  0.8000E-02
     -8.865  0.0000E+00  0.8000E-02
     -8.806  0.0000E+00  0.8000E-02
     -8.748  0.0000E+00  0.8000E-02
     -8.689  0.0000E+00  0.8000E-02
     -8.630  0.0000E+00  0.8000E-02
     -8.572  0.0000E+00  0.8000E-02
     -8.513  0.0000E+00  0.8000E-02
     -8.455  0.0000E+00  0.8000E-02
     -8.396  0.0000E+00  0.8000E-02
     -8.337  0.0000E+00  0.8000E-02
     -8.279  0.0000E+00  0.8000E-02
     -8.220  0.0000E+00  0.8000E-02
     -8.161  0.0000E+00  0.8000E-02
     -8.103  0.0000E+00  0.8000E-02
     -8.044  0.0000E+00  0.8000E-02
     -7.986  0.0000E+00  0.8000E-02
     -7.927  0.0000E+00  0.8000E-02
     -7.868  0.0000E+00  0.8000E-02
     -7.810  0.0000E+00  0.8000E-02
     -7.751  0.0000E+00  0.8000E-02
     -7.692  0.0000E+00  0.8000E-02
     -7.634  0.0000E+00  0.8000E-02
     -7.575  0.0000E+00  0.8000E-02
     -7.517  0.0000E+00  0.8000E-02
     -7.458  0.0000E+00  0.8000E-02
     -7.399  0.0000E+00  0.8000E-02
     -7.341  0.0000E+00  0.8000E-02
     -7.282  0.0000E+00  0.8000E-02
     -7.223  0.0000E+00  0.8000E-02
     -7.165  0.0000E+00  0.8000E-02
     -7.106  0.0000E+00  0.8000E-02
     -7.048  0.0000E+00  0.8000E-02
     -6.989  0.0000E+00  0.8000E-02
     -6.930  0.0000E+00  0.8000E-02
     -6.872  0.0000E+00  0.8000E-02
     -6.813  0.0000E+00  0.8000E-02
     -6.754  0.0000E+00  0.8000E-02
     -6.696  0.0000E+00  0.8000E-02
     -6.637  0.0000E+00  0.8000E-02
     -6.579  0.0000E+00  0.8000E-02
     -6.520  0.0000E+00  0.8000E-02
     -6.461  0.0000E+00  0.8000E-02
     -6.403  0.0000E+00  0.8000E-02
     -6.344  0.0000E+00  0.8000E-02
     -6.285  0.0000E+00  0.8000E-02
     -6.227  0.0000E+00  0.8000E-02
     -6.168  0.0000E+00  0.8000E-02
     -6.110  0.0000E+00  0.8000E-02
     -6.051  0.0000E+00  0.8000E-02
     -5.992  0.0000E+00  0.8000E-02
     -5.934  0.0000E+00  0.8000E-02
     -5.875  0.1950E-06  0.8000E-02
     -5.816  0.4086E-06  0.8000E-02
     -5.758  0.1572E-05  0.8000E-02
     -5.699  0.3944E-05  0.8000E-02
     -5.641  0.1017E-04  0.8001E-02
     -5.582  0.2668E-04  0.8003E-02
     -5.523  0.6765E-04  0.8006E-02
     -5.465  0.1615E-03  0.8016E-02
     -5.406  0.3464E-03  0.8036E-02
     -5.347  0.6374E-03  0.8074E-02
     -5.289  0.1019E-02  0.8133E-02
     -5.230  0.1422E-02  0.8217E-02
     -5.172  0.1695E-02  0.8316E-02
     -5.113  0.1795E-02  0.8421E-02
     -5.054  0.1850E-02  0.8530E-02
     -4.996  0.1992E-02  0.8647E-02
     -4.937  0.2219E-02  0.8777E-02
     -4.878  0.2407E-02  0.8918E-02
     -4.820  0.2439E-02  0.9061E-02
     -4.761  0.2381E-02  0.9200E-02
     -4.703  0.2394E-02  0.9341E-02
     -4.644  0.2612E-02  0.9494E-02
     -4.585  0.3106E-02  0.9676E-02
     -4.527  0.3854E-02  0.9902E-02
     -4.468  0.4780E-02  0.1018E-01
     -4.409  0.5787E-02  0.1052E-01
     -4.351  0.6693E-02  0.1091E-01
     -4.292  0.7262E-02  0.1134E-01
     -4.234  0.7377E-02  0.1177E-01
     -4.175  0.6978E-02  0.1218E-01
     -4.116  0.6249E-02  0.1255E-01
     -4.058  0.5584E-02  0.1288E-01
     -3.999  0.5070E-02  0.1317E-01
     -3.940  0.4612E-02  0.1344E-01
     -3.882  0.4207E-02  0.1369E-01
     -3.823  0.3910E-02  0.1392E-01
     -3.765  0.3745E-02  0.1414E-01
     -3.706  0.3592E-02  0.1435E-01
     -3.647  0.3416E-02  0.1455E-01
     -3.589  0.3483E-02  0.1476E-01
     -3.530  0.3986E-02  0.1499E-01
     -3.471  0.4782E-02  0.1527E-01
     -3.413  0.5510E-02  0.1559E-01
     -3.354  0.5788E-02  0.1593E-01
     -3.296  0.5441E-02  0.1625E-01
     -3.237  0.4732E-02  0.1653E-01
     -3.178  0.4146E-02  0.1677E-01
     -3.120  0.3939E-02  0.1700E-01
     -3.061  0.4189E-02  0.1725E-01
     -3.002  0.4769E-02  0.1753E-01
     -2.944  0.5241E-02  0.1784E-01
     -2.885  0.5388E-02  0.1815E-01
     -2.827  0.5548E-02  0.1848E-01
     -2.768  0.5951E-02  0.1883E-01
     -2.709  0.6449E-02  0.1920E-01
     -2.651  0.6849E-02  0.1961E-01
     -2.592  0.6949E-02  0.2001E-01
     -2.533  0.6794E-02  0.2041E-01
     -2.475  0.6660E-02  0.2080E-01
     -2.416  0.6365E-02  0.2118E-01
     -2.358  0.5739E-02  0.2151E-01
     -2.299  0.5204E-02  0.2182E-01
     -2.240  0.5054E-02  0.2211E-01
     -2.182  0.5127E-02  0.2242E-01
     -2.123  0.5164E-02  0.2272E-01
     -2.064  0.5182E-02  0.2302E-01
     -2.006  0.5264E-02  0.2333E-01
     -1.947  0.5357E-02  0.2365E-01
     -1.889  0.5458E-02  0.2397E-01
     -1.830  0.5688E-02  0.2430E-01
     -1.771  0.6049E-02  0.2465E-01
     -1.713  0.6372E-02  0.2503E-01
     -1.654  0.6517E-02  0.2541E-01
     -1.595  0.6431E-02  0.2579E-01
     -1.537  0.6384E-02  0.2616E-01
     -1.478  0.6843E-02  0.2656E-01
     -1.420  0.7844E-02  0.2702E-01
     -1.361  0.8616E-02  0.2753E-01
     -1.302  0.8352E-02  0.2802E-01
     -1.244  0.7256E-02  0.2844E-01
     -1.185  0.6203E-02  0.2881E-01
     -1.126  0.5867E-02  0.2915E-01
     -1.068  0.6320E-02  0.2952E-01
     -1.009  0.7150E-02  0.2994E-01
     -0.951  0.7903E-02  0.3041E-01
     -0.892  0.8165E-02  0.3088E-01
     -0.833  0.7814E-02  0.3134E-01
     -0.775  0.7276E-02  0.3177E-01
     -0.716  0.6861E-02  0.3217E-01
     -0.657  0.6428E-02  0.3255E-01
     -0.599  0.5965E-02  0.3290E-01
     -0.540  0.5673E-02  0.3323E-01
     -0.482  0.5367E-02  0.3355E-01
     -0.423  0.4982E-02  0.3384E-01
     -0.364  0.4759E-02  0.3412E-01
     -0.306  0.4556E-02  0.3439E-01
     -0.247  0.4310E-02  0.3464E-01
     -0.189  0.4100E-02  0.3488E-01
     -0.130  0.3822E-02  0.3510E-01
     -0.071  0.3463E-02  0.3531E-01
     -0.013  0.3003E-02  0.3548E-01
      0.046  0.2354E-02  0.3562E-01
      0.105  0.1633E-02  0.3572E-01
      0.163  0.1086E-02  0.3578E-01
      0.222  0.8057E-03  0.3583E-01
      0.280  0.7605E-03  0.3587E-01
      0.339  0.9092E-03  0.3593E-01
      0.398  0.1176E-02  0.3600E-01
      0.456  0.1483E-02  0.3608E-01
      0.515  0.1795E-02  0.3619E-01
      0.574  0.2137E-02  0.3631E-01
      0.632  0.2562E-02  0.3646E-01
      0.691  0.3023E-02  0.3664E-01
      0.749  0.3273E-02  0.3683E-01
      0.808  0.3082E-02  0.3701E-01
      0.867  0.2647E-02  0.3717E-01
      0.925  0.2288E-02  0.3730E-01
      0.984  0.2120E-02  0.3743E-01
      1.043  0.2156E-02  0.3755E-01
      1.101  0.2286E-02  0.3769E-01
      1.160  0.2507E-02  0.3783E-01
      1.218  0.2978E-02  0.3801E-01
      1.277  0.3673E-02  0.3822E-01
      1.336  0.4431E-02  0.3848E-01
      1.394  0.5188E-02  0.3879E-01
      1.453  0.5732E-02  0.3912E-01
      1.512  0.5607E-02  0.3945E-01
      1.570  0.4643E-02  0.3973E-01
      1.629  0.3600E-02  0.3994E-01
      1.687  0.3469E-02  0.4014E-01
      1.746  0.4423E-02  0.4040E-01
      1.805  0.5723E-02  0.4074E-01
      1.863  0.6462E-02  0.4111E-01
      1.922  0.6564E-02  0.4150E-01
      1.981  0.6541E-02  0.4188E-01
      2.039  0.6714E-02  0.4228E-01
      2.098  0.6927E-02  0.4268E-01
      2.156  0.6783E-02  0.4308E-01
      2.215  0.6360E-02  0.4345E-01
      2.274  0.6119E-02  0.4381E-01
      2.332  0.6400E-02  0.4419E-01
      2.391  0.7135E-02  0.4461E-01
      2.450  0.7696E-02  0.4506E-01
      2.508  0.7454E-02  0.4550E-01
      2.567  0.6491E-02  0.4588E-01
      2.625  0.5552E-02  0.4620E-01
      2.684  0.4963E-02  0.4649E-01
      2.743  0.4415E-02  0.4675E-01
      2.801  0.3773E-02  0.4697E-01
      2.860  0.3121E-02  0.4716E-01
      2.919  0.2456E-02  0.4730E-01
      2.977  0.1783E-02  0.4741E-01
      3.036  0.1289E-02  0.4748E-01
      3.094  0.1142E-02  0.4755E-01
      3.153  0.1261E-02  0.4762E-01
      3.212  0.1367E-02  0.4770E-01
      3.270  0.1233E-02  0.4778E-01
      3.329  0.9591E-03  0.4783E-01
      3.388  0.7678E-03  0.4788E-01
      3.446  0.6786E-03  0.4792E-01
      3.505  0.5784E-03  0.4795E-01
      3.563  0.4153E-03  0.4797E-01
      3.622  0.2375E-03  0.4799E-01
      3.681  0.1110E-03  0.4800E-01
      3.739  0.4571E-04  0.4800E-01
      3.798  0.1781E-04  0.4800E-01
      3.857  0.6625E-05  0.4800E-01
      3.915  0.2360E-05  0.4800E-01
      3.974  0.6696E-06  0.4800E-01
      4.032  0.0000E+00  0.4800E-01
      4.091  0.0000E+00  0.4800E-01
      4.150  0.0000E+00  0.4800E-01
      4.208  0.0000E+00  0.4800E-01
      4.267  0.0000E+00  0.4800E-01
      4.326  0.0000E+00  0.4800E-01
