    6    6 1000    1
  0.5861956E+02  0.3452000E-09  0.6368000E-09  0.1600000E-08  0.5000000E-15
  1.000000000000000E-004
  CAR 
 2D MoTe2 in a box                       
     36    162     24
 
  0.2777778E-01  0.2777778E-01  0.1262379E-14  0.6172840E-02
    1      -12.462386
    2      -11.561993
    3      -10.754651
    4      -10.494150
    5       -5.240691
    6       -4.567355
    7       -4.308075
    8       -3.554046
    9       -2.429830
   10       -2.016679
   11       -1.959031
   12       -1.650625
   13       -1.317343
   14       -0.954040
   15       -0.675882
   16       -0.217841
   17       -0.000394
   18        0.594437
   19        0.899904
   20        1.518706
   21        2.036007
   22        2.427292
   23        2.621556
   24        3.526175
 
  0.8333333E-01  0.2777778E-01  0.1262379E-14  0.6172840E-02
    1      -12.393249
    2      -11.515172
    3      -10.718849
    4      -10.448156
    5       -5.168473
    6       -4.488699
    7       -4.278711
    8       -3.522488
    9       -2.469244
   10       -2.174504
   11       -2.052811
   12       -1.709508
   13       -1.315988
   14       -0.913048
   15       -0.709003
   16       -0.388836
   17       -0.005463
   18        0.442679
   19        0.585531
   20        1.664304
   21        2.142293
   22        2.364585
   23        2.434974
   24        3.115393
 
  0.1388889E+00  0.2777778E-01  0.1262379E-14  0.6172840E-02
    1      -12.256738
    2      -11.423636
    3      -10.650673
    4      -10.360917
    5       -5.029873
    6       -4.352758
    7       -4.214756
    8       -3.472646
    9       -2.548682
   10       -2.458093
   11       -2.121407
   12       -1.939757
   13       -1.346508
   14       -1.027213
   15       -0.803833
   16       -0.523123
   17       -0.013514
   18        0.088622
   19        0.361795
   20        1.634304
   21        2.199231
   22        2.299620
   23        2.410027
   24        2.568665
 
  0.1944444E+00  0.2777778E-01  0.1262379E-14  0.6172840E-02
    1      -12.056623
    2      -11.291893
    3      -10.557344
    4      -10.243048
    5       -4.838727
    6       -4.264059
    7       -4.045593
    8       -3.430860
    9       -2.848388
   10       -2.623068
   11       -2.307269
   12       -2.206335
   13       -1.392764
   14       -1.227902
   15       -1.079227
   16       -0.706640
   17       -0.330041
   18        0.008199
   19        0.353701
   20        1.459965
   21        2.100054
   22        2.216662
   23        2.391541
   24        2.419191
 
  0.2500000E+00  0.2777778E-01  0.1262379E-14  0.6172840E-02
    1      -11.799310
    2      -11.127355
    3      -10.450364
    4      -10.113061
    5       -4.623248
    6       -4.264441
    7       -3.779282
    8       -3.476687
    9       -3.310696
   10       -2.661387
   11       -2.518146
   12       -2.426305
   13       -1.703255
   14       -1.416631
   15       -1.349769
   16       -0.982686
   17       -0.541890
   18       -0.043360
   19        0.500747
   20        1.349640
   21        1.830962
   22        2.241328
   23        2.360885
   24        2.509408
 
  0.3055556E+00  0.2777778E-01  0.1262379E-14  0.6172840E-02
    1      -11.494972
    2      -10.941255
    3      -10.345776
    4       -9.999781
    5       -4.443236
    6       -4.316853
    7       -3.964700
    8       -3.480050
    9       -3.331412
   10       -2.807597
   11       -2.682981
   12       -2.596982
   13       -2.241203
   14       -1.529240
   15       -1.406437
   16       -1.225774
   17       -0.690463
   18       -0.178484
   19        0.738969
   20        1.321823
   21        1.732062
   22        2.258879
   23        2.346936
   24        2.465907
 
  0.3611111E+00  0.2777778E-01  0.1262379E-14  0.6172840E-02
    1      -11.159964
    2      -10.750007
    3      -10.262844
    4       -9.941821
    5       -4.470760
    6       -4.343962
    7       -4.311322
    8       -3.412090
    9       -3.256359
   10       -3.092310
   11       -2.838149
   12       -2.799730
   13       -2.225197
   14       -1.688415
   15       -1.440729
   16       -1.325840
   17       -0.850930
   18       -0.390921
   19        1.013695
   20        1.370207
   21        1.756607
   22        2.089084
   23        2.279401
   24        2.487397
 
  0.4166667E+00  0.2777778E-01  0.1262379E-14  0.6172840E-02
    1      -10.822134
    2      -10.577357
    3      -10.217714
    4       -9.975642
    5       -4.638891
    6       -4.465763
    7       -4.319313
    8       -3.843943
    9       -3.317407
   10       -3.227109
   11       -2.751305
   12       -2.611259
   13       -2.088008
   14       -1.872528
   15       -1.466887
   16       -1.304206
   17       -1.004487
   18       -0.664688
   19        1.273684
   20        1.459526
   21        1.811854
   22        1.910144
   23        2.164746
   24        2.495569
 
  0.4722222E+00  0.2777778E-01  0.1262379E-14  0.6172840E-02
    1      -10.541987
    2      -10.466883
    3      -10.198001
    4      -10.100286
    5       -4.643714
    6       -4.535410
    7       -4.341236
    8       -4.213908
    9       -3.380673
   10       -3.348178
   11       -2.459752
   12       -2.335321
   13       -2.176456
   14       -2.084732
   15       -1.333898
   16       -1.252173
   17       -1.099018
   18       -0.961577
   19        1.452536
   20        1.505652
   21        1.806161
   22        1.810208
   23        2.222830
   24        2.381387
 
 -0.4722222E+00  0.2777778E-01  0.1262379E-14  0.6172840E-02
    1      -10.541987
    2      -10.466883
    3      -10.198001
    4      -10.100286
    5       -4.643714
    6       -4.535410
    7       -4.341236
    8       -4.213908
    9       -3.380673
   10       -3.348178
   11       -2.459752
   12       -2.335321
   13       -2.176456
   14       -2.084732
   15       -1.333898
   16       -1.252173
   17       -1.099018
   18       -0.961577
   19        1.452536
   20        1.505652
   21        1.806161
   22        1.810208
   23        2.222830
   24        2.381387
 
 -0.4166667E+00  0.2777778E-01  0.1262379E-14  0.6172840E-02
    1      -10.822134
    2      -10.577357
    3      -10.217714
    4       -9.975642
    5       -4.638891
    6       -4.465763
    7       -4.319313
    8       -3.843943
    9       -3.317407
   10       -3.227109
   11       -2.751305
   12       -2.611259
   13       -2.088008
   14       -1.872528
   15       -1.466887
   16       -1.304206
   17       -1.004487
   18       -0.664688
   19        1.273684
   20        1.459526
   21        1.811854
   22        1.910144
   23        2.164746
   24        2.495569
 
 -0.3611111E+00  0.2777778E-01  0.1262379E-14  0.6172840E-02
    1      -11.159964
    2      -10.750007
    3      -10.262844
    4       -9.941821
    5       -4.470760
    6       -4.343962
    7       -4.311322
    8       -3.412090
    9       -3.256359
   10       -3.092310
   11       -2.838149
   12       -2.799730
   13       -2.225197
   14       -1.688415
   15       -1.440729
   16       -1.325840
   17       -0.850930
   18       -0.390921
   19        1.013695
   20        1.370207
   21        1.756607
   22        2.089084
   23        2.279401
   24        2.487397
 
 -0.3055556E+00  0.2777778E-01  0.1262379E-14  0.6172840E-02
    1      -11.494972
    2      -10.941255
    3      -10.345776
    4       -9.999781
    5       -4.443236
    6       -4.316853
    7       -3.964700
    8       -3.480050
    9       -3.331412
   10       -2.807597
   11       -2.682981
   12       -2.596982
   13       -2.241203
   14       -1.529240
   15       -1.406437
   16       -1.225774
   17       -0.690463
   18       -0.178484
   19        0.738969
   20        1.321823
   21        1.732062
   22        2.258879
   23        2.346936
   24        2.465907
 
 -0.2500000E+00  0.2777778E-01  0.1262379E-14  0.6172840E-02
    1      -11.799310
    2      -11.127355
    3      -10.450364
    4      -10.113061
    5       -4.623248
    6       -4.264441
    7       -3.779282
    8       -3.476687
    9       -3.310696
   10       -2.661387
   11       -2.518146
   12       -2.426305
   13       -1.703255
   14       -1.416631
   15       -1.349769
   16       -0.982686
   17       -0.541890
   18       -0.043360
   19        0.500747
   20        1.349640
   21        1.830962
   22        2.241328
   23        2.360885
   24        2.509408
 
 -0.1944444E+00  0.2777778E-01  0.1262379E-14  0.6172840E-02
    1      -12.056623
    2      -11.291893
    3      -10.557344
    4      -10.243048
    5       -4.838727
    6       -4.264059
    7       -4.045593
    8       -3.430860
    9       -2.848388
   10       -2.623068
   11       -2.307269
   12       -2.206335
   13       -1.392764
   14       -1.227902
   15       -1.079227
   16       -0.706640
   17       -0.330041
   18        0.008199
   19        0.353701
   20        1.459965
   21        2.100054
   22        2.216662
   23        2.391541
   24        2.419191
 
 -0.1388889E+00  0.2777778E-01  0.1262379E-14  0.6172840E-02
    1      -12.256738
    2      -11.423636
    3      -10.650673
    4      -10.360917
    5       -5.029873
    6       -4.352758
    7       -4.214756
    8       -3.472646
    9       -2.548682
   10       -2.458093
   11       -2.121407
   12       -1.939757
   13       -1.346508
   14       -1.027213
   15       -0.803833
   16       -0.523123
   17       -0.013514
   18        0.088622
   19        0.361795
   20        1.634304
   21        2.199231
   22        2.299620
   23        2.410027
   24        2.568665
 
 -0.8333333E-01  0.2777778E-01  0.1262379E-14  0.6172840E-02
    1      -12.393249
    2      -11.515172
    3      -10.718849
    4      -10.448156
    5       -5.168473
    6       -4.488699
    7       -4.278711
    8       -3.522488
    9       -2.469244
   10       -2.174504
   11       -2.052811
   12       -1.709508
   13       -1.315988
   14       -0.913048
   15       -0.709003
   16       -0.388836
   17       -0.005463
   18        0.442679
   19        0.585531
   20        1.664304
   21        2.142293
   22        2.364585
   23        2.434974
   24        3.115393
 
 -0.2777778E-01  0.2777778E-01  0.1262379E-14  0.6172840E-02
    1      -12.462386
    2      -11.561993
    3      -10.754651
    4      -10.494150
    5       -5.240691
    6       -4.567355
    7       -4.308075
    8       -3.554046
    9       -2.429830
   10       -2.016679
   11       -1.959031
   12       -1.650625
   13       -1.317343
   14       -0.954040
   15       -0.675882
   16       -0.217841
   17       -0.000394
   18        0.594437
   19        0.899904
   20        1.518706
   21        2.036007
   22        2.427292
   23        2.621556
   24        3.526175
 
  0.2777778E-01  0.8333333E-01  0.1262379E-14  0.6172840E-02
    1      -12.444041
    2      -11.553049
    3      -10.795764
    4      -10.503263
    5       -5.216460
    6       -4.516518
    7       -4.289737
    8       -3.528568
    9       -2.479737
   10       -2.018928
   11       -1.936527
   12       -1.650653
   13       -1.397609
   14       -0.887732
   15       -0.704014
   16       -0.227599
   17        0.002867
   18        0.533507
   19        0.884134
   20        1.515411
   21        2.002995
   22        2.414568
   23        2.654548
   24        3.496930
 
  0.8333333E-01  0.8333333E-01  0.1262379E-14  0.6172840E-02
    1      -12.375098
    2      -11.506301
    3      -10.758104
    4      -10.458277
    5       -5.142921
    6       -4.437460
    7       -4.264318
    8       -3.495941
    9       -2.520252
   10       -2.187329
   11       -2.028385
   12       -1.701774
   13       -1.368022
   14       -0.891718
   15       -0.734098
   16       -0.376385
   17       -0.021330
   18        0.347048
   19        0.658530
   20        1.607820
   21        2.084753
   22        2.404749
   23        2.453700
   24        3.134104
 
  0.1388889E+00  0.8333333E-01  0.1262379E-14  0.6172840E-02
    1      -12.238997
    2      -11.414935
    3      -10.686545
    4      -10.372604
    5       -5.001772
    6       -4.302396
    7       -4.207834
    8       -3.446479
    9       -2.597499
   10       -2.449940
   11       -2.150568
   12       -1.895997
   13       -1.383972
   14       -1.047407
   15       -0.812496
   16       -0.509525
   17       -0.054371
   18        0.038540
   19        0.437447
   20        1.592612
   21        2.098680
   22        2.362422
   23        2.397006
   24        2.638188
 
  0.1944444E+00  0.8333333E-01  0.1262379E-14  0.6172840E-02
    1      -12.039561
    2      -11.283498
    3      -10.588804
    4      -10.256046
    5       -4.807799
    6       -4.238095
    7       -4.030800
    8       -3.412246
    9       -2.839107
   10       -2.630768
   11       -2.394980
   12       -2.132001
   13       -1.439873
   14       -1.299674
   15       -1.000792
   16       -0.730275
   17       -0.325921
   18       -0.036356
   19        0.402302
   20        1.457732
   21        2.034596
   22        2.160613
   23        2.400028
   24        2.536486
 
  0.2500000E+00  0.8333333E-01  0.1262379E-14  0.6172840E-02
    1      -11.783265
    2      -11.119457
    3      -10.476883
    4      -10.126164
    5       -4.596894
    6       -4.248855
    7       -3.799702
    8       -3.434710
    9       -3.300118
   10       -2.647012
   11       -2.577014
   12       -2.393469
   13       -1.809480
   14       -1.429162
   15       -1.243761
   16       -0.991291
   17       -0.535126
   18       -0.097827
   19        0.533114
   20        1.362789
   21        1.816425
   22        2.166905
   23        2.362084
   24        2.622159
 
  0.3055556E+00  0.8333333E-01  0.1262379E-14  0.6172840E-02
    1      -11.480478
    2      -10.934109
    3      -10.367162
    4      -10.010905
    5       -4.481041
    6       -4.274771
    7       -3.948665
    8       -3.481072
    9       -3.333558
   10       -2.791184
   11       -2.692196
   12       -2.609634
   13       -2.258306
   14       -1.515424
   15       -1.353706
   16       -1.221766
   17       -0.695066
   18       -0.227153
   19        0.756034
   20        1.341682
   21        1.726937
   22        2.220353
   23        2.321637
   24        2.583710
 
  0.3611111E+00  0.8333333E-01  0.1262379E-14  0.6172840E-02
    1      -11.147912
    2      -10.743900
    3      -10.279096
    4       -9.948422
    5       -4.599187
    6       -4.330332
    7       -4.189019
    8       -3.496066
    9       -3.308265
   10       -2.992483
   11       -2.826307
   12       -2.796009
   13       -2.200369
   14       -1.672340
   15       -1.395283
   16       -1.324951
   17       -0.864737
   18       -0.421086
   19        1.015629
   20        1.394639
   21        1.756567
   22        2.089075
   23        2.315594
   24        2.508044
 
  0.4166667E+00  0.8333333E-01  0.1262379E-14  0.6172840E-02
    1      -10.814317
    2      -10.572622
    3      -10.228600
    4       -9.975700
    5       -4.753988
    6       -4.410556
    7       -4.329506
    8       -3.873532
    9       -3.361242
   10       -3.111814
   11       -2.759857
   12       -2.588096
   13       -2.067121
   14       -1.858903
   15       -1.415306
   16       -1.304381
   17       -1.026774
   18       -0.668610
   19        1.264399
   20        1.483154
   21        1.821246
   22        1.929992
   23        2.201116
   24        2.490781
 
  0.4722222E+00  0.8333333E-01  0.1262379E-14  0.6172840E-02
    1      -10.541569
    2      -10.465277
    3      -10.199938
    4      -10.094576
    5       -4.745840
    6       -4.574431
    7       -4.351451
    8       -4.194516
    9       -3.355693
   10       -3.269056
   11       -2.467493
   12       -2.323906
   13       -2.155967
   14       -2.067702
   15       -1.303846
   16       -1.237527
   17       -1.120006
   18       -0.942919
   19        1.445849
   20        1.516630
   21        1.830366
   22        1.839252
   23        2.234801
   24        2.381176
 
 -0.4722222E+00  0.8333333E-01  0.1262379E-14  0.6172840E-02
    1      -10.541569
    2      -10.465277
    3      -10.199938
    4      -10.094576
    5       -4.745840
    6       -4.574431
    7       -4.351451
    8       -4.194516
    9       -3.355693
   10       -3.269056
   11       -2.467493
   12       -2.323906
   13       -2.155967
   14       -2.067702
   15       -1.303846
   16       -1.237527
   17       -1.120006
   18       -0.942919
   19        1.445849
   20        1.516630
   21        1.830366
   22        1.839252
   23        2.234801
   24        2.381176
 
 -0.4166667E+00  0.8333333E-01  0.1262379E-14  0.6172840E-02
    1      -10.814317
    2      -10.572622
    3      -10.228600
    4       -9.975700
    5       -4.753988
    6       -4.410556
    7       -4.329506
    8       -3.873532
    9       -3.361242
   10       -3.111814
   11       -2.759857
   12       -2.588096
   13       -2.067121
   14       -1.858903
   15       -1.415306
   16       -1.304381
   17       -1.026774
   18       -0.668610
   19        1.264399
   20        1.483154
   21        1.821246
   22        1.929992
   23        2.201116
   24        2.490781
 
 -0.3611111E+00  0.8333333E-01  0.1262379E-14  0.6172840E-02
    1      -11.147912
    2      -10.743900
    3      -10.279096
    4       -9.948422
    5       -4.599187
    6       -4.330332
    7       -4.189019
    8       -3.496066
    9       -3.308265
   10       -2.992483
   11       -2.826307
   12       -2.796009
   13       -2.200369
   14       -1.672340
   15       -1.395283
   16       -1.324951
   17       -0.864737
   18       -0.421086
   19        1.015629
   20        1.394639
   21        1.756567
   22        2.089075
   23        2.315594
   24        2.508044
 
 -0.3055556E+00  0.8333333E-01  0.1262379E-14  0.6172840E-02
    1      -11.480478
    2      -10.934109
    3      -10.367162
    4      -10.010905
    5       -4.481041
    6       -4.274771
    7       -3.948665
    8       -3.481072
    9       -3.333558
   10       -2.791184
   11       -2.692196
   12       -2.609634
   13       -2.258306
   14       -1.515424
   15       -1.353706
   16       -1.221766
   17       -0.695066
   18       -0.227153
   19        0.756034
   20        1.341682
   21        1.726937
   22        2.220353
   23        2.321637
   24        2.583710
 
 -0.2500000E+00  0.8333333E-01  0.1262379E-14  0.6172840E-02
    1      -11.783265
    2      -11.119457
    3      -10.476883
    4      -10.126164
    5       -4.596894
    6       -4.248855
    7       -3.799702
    8       -3.434710
    9       -3.300118
   10       -2.647012
   11       -2.577014
   12       -2.393469
   13       -1.809480
   14       -1.429162
   15       -1.243761
   16       -0.991291
   17       -0.535126
   18       -0.097827
   19        0.533114
   20        1.362789
   21        1.816425
   22        2.166905
   23        2.362084
   24        2.622159
 
 -0.1944444E+00  0.8333333E-01  0.1262379E-14  0.6172840E-02
    1      -12.039561
    2      -11.283498
    3      -10.588804
    4      -10.256046
    5       -4.807799
    6       -4.238095
    7       -4.030800
    8       -3.412246
    9       -2.839107
   10       -2.630768
   11       -2.394980
   12       -2.132001
   13       -1.439873
   14       -1.299674
   15       -1.000792
   16       -0.730275
   17       -0.325921
   18       -0.036356
   19        0.402302
   20        1.457732
   21        2.034596
   22        2.160613
   23        2.400028
   24        2.536486
 
 -0.1388889E+00  0.8333333E-01  0.1262379E-14  0.6172840E-02
    1      -12.238997
    2      -11.414935
    3      -10.686545
    4      -10.372604
    5       -5.001772
    6       -4.302396
    7       -4.207834
    8       -3.446479
    9       -2.597499
   10       -2.449940
   11       -2.150568
   12       -1.895997
   13       -1.383972
   14       -1.047407
   15       -0.812496
   16       -0.509525
   17       -0.054371
   18        0.038540
   19        0.437447
   20        1.592612
   21        2.098680
   22        2.362422
   23        2.397006
   24        2.638188
 
 -0.8333333E-01  0.8333333E-01  0.1262379E-14  0.6172840E-02
    1      -12.375098
    2      -11.506301
    3      -10.758104
    4      -10.458277
    5       -5.142921
    6       -4.437460
    7       -4.264318
    8       -3.495941
    9       -2.520252
   10       -2.187329
   11       -2.028385
   12       -1.701774
   13       -1.368022
   14       -0.891718
   15       -0.734098
   16       -0.376385
   17       -0.021330
   18        0.347048
   19        0.658530
   20        1.607820
   21        2.084753
   22        2.404749
   23        2.453700
   24        3.134104
 
 -0.2777778E-01  0.8333333E-01  0.1262379E-14  0.6172840E-02
    1      -12.444041
    2      -11.553049
    3      -10.795764
    4      -10.503263
    5       -5.216460
    6       -4.516518
    7       -4.289737
    8       -3.528568
    9       -2.479737
   10       -2.018928
   11       -1.936527
   12       -1.650653
   13       -1.397609
   14       -0.887732
   15       -0.704014
   16       -0.227599
   17        0.002867
   18        0.533507
   19        0.884134
   20        1.515411
   21        2.002995
   22        2.414568
   23        2.654548
   24        3.496930
 
  0.2777778E-01  0.1388889E+00  0.1262379E-14  0.6172840E-02
    1      -12.407582
    2      -11.535853
    3      -10.871276
    4      -10.523901
    5       -5.168066
    6       -4.434515
    7       -4.237716
    8       -3.487318
    9       -2.567517
   10       -2.016304
   11       -1.899826
   12       -1.652817
   13       -1.496313
   14       -0.824635
   15       -0.741385
   16       -0.247521
   17       -0.007806
   18        0.431965
   19        0.839732
   20        1.511947
   21        1.947088
   22        2.385369
   23        2.713180
   24        3.459556
 
  0.8333333E-01  0.1388889E+00  0.1262379E-14  0.6172840E-02
    1      -12.339044
    2      -11.489224
    3      -10.830853
    4      -10.480117
    5       -5.092481
    6       -4.354527
    7       -4.219531
    8       -3.451448
    9       -2.613571
   10       -2.200932
   11       -1.987185
   12       -1.689664
   13       -1.446023
   14       -0.874922
   15       -0.772387
   16       -0.361661
   17       -0.059632
   18        0.239512
   19        0.718155
   20        1.517937
   21        2.011871
   22        2.389239
   23        2.526315
   24        3.165780
 
  0.1388889E+00  0.1388889E+00  0.1262379E-14  0.6172840E-02
    1      -12.203759
    2      -11.398153
    3      -10.753992
    4      -10.396353
    5       -4.947217
    6       -4.204258
    7       -4.193643
    8       -3.400487
    9       -2.689979
   10       -2.444171
   11       -2.163989
   12       -1.841948
   13       -1.453741
   14       -1.077682
   15       -0.830616
   16       -0.496209
   17       -0.094202
   18       -0.052385
   19        0.538220
   20        1.508459
   21        2.021182
   22        2.329756
   23        2.442585
   24        2.722830
 
  0.1944444E+00  0.1388889E+00  0.1262379E-14  0.6172840E-02
    1      -12.005677
    2      -11.267265
    3      -10.648872
    4      -10.281389
    5       -4.748249
    6       -4.191795
    7       -3.996197
    8       -3.382091
    9       -2.831266
   10       -2.654486
   11       -2.465978
   12       -2.068100
   13       -1.544053
   14       -1.337954
   15       -0.937074
   16       -0.749707
   17       -0.336579
   18       -0.114111
   19        0.488870
   20        1.432342
   21        1.954606
   22        2.129851
   23        2.418702
   24        2.628540
 
  0.2500000E+00  0.1388889E+00  0.1262379E-14  0.6172840E-02
    1      -11.751414
    2      -11.104142
    3      -10.528101
    4      -10.151281
    5       -4.545830
    6       -4.217861
    7       -3.817289
    8       -3.431233
    9       -3.221701
   10       -2.662793
   11       -2.624167
   12       -2.372826
   13       -1.928201
   14       -1.430742
   15       -1.126747
   16       -1.002390
   17       -0.535346
   18       -0.191415
   19        0.594715
   20        1.370154
   21        1.792771
   22        2.102824
   23        2.379678
   24        2.725800
 
  0.3055556E+00  0.1388889E+00  0.1262379E-14  0.6172840E-02
    1      -11.451735
    2      -10.920243
    3      -10.408722
    4      -10.032306
    5       -4.517941
    6       -4.227610
    7       -3.914889
    8       -3.523773
    9       -3.298362
   10       -2.793942
   11       -2.712960
   12       -2.615911
   13       -2.255135
   14       -1.495915
   15       -1.266443
   16       -1.212587
   17       -0.707045
   18       -0.311676
   19        0.791137
   20        1.366484
   21        1.720578
   22        2.157731
   23        2.354579
   24        2.707417
 
  0.3611111E+00  0.1388889E+00  0.1262379E-14  0.6172840E-02
    1      -11.124074
    2      -10.732070
    3      -10.310564
    4       -9.961517
    5       -4.710406
    6       -4.330904
    7       -4.077594
    8       -3.597304
    9       -3.365640
   10       -2.899735
   11       -2.799110
   12       -2.778617
   13       -2.150404
   14       -1.641018
   15       -1.339549
   16       -1.300978
   17       -0.891161
   18       -0.471500
   19        1.024378
   20        1.427644
   21        1.761841
   22        2.084477
   23        2.376466
   24        2.558111
 
  0.4166667E+00  0.1388889E+00  0.1262379E-14  0.6172840E-02
    1      -10.798970
    2      -10.563613
    3      -10.248930
    4       -9.976719
    5       -4.880585
    6       -4.397594
    7       -4.365632
    8       -3.904608
    9       -3.349920
   10       -2.997490
   11       -2.775457
   12       -2.546361
   13       -2.020799
   14       -1.825813
   15       -1.352814
   16       -1.284129
   17       -1.065713
   18       -0.671466
   19        1.255338
   20        1.510206
   21        1.847611
   22        1.959012
   23        2.276629
   24        2.483609
 
  0.4722222E+00  0.1388889E+00  0.1262379E-14  0.6172840E-02
    1      -10.540368
    2      -10.463050
    3      -10.201977
    4      -10.085033
    5       -4.875468
    6       -4.680959
    7       -4.351736
    8       -4.187152
    9       -3.283565
   10       -3.166810
   11       -2.485271
   12       -2.321312
   13       -2.097560
   14       -2.019574
   15       -1.295974
   16       -1.210403
   17       -1.122905
   18       -0.903173
   19        1.437754
   20        1.525990
   21        1.881667
   22        1.890463
   23        2.261409
   24        2.382518
 
 -0.4722222E+00  0.1388889E+00  0.1262379E-14  0.6172840E-02
    1      -10.540368
    2      -10.463050
    3      -10.201977
    4      -10.085033
    5       -4.875468
    6       -4.680959
    7       -4.351736
    8       -4.187152
    9       -3.283565
   10       -3.166810
   11       -2.485271
   12       -2.321312
   13       -2.097560
   14       -2.019574
   15       -1.295974
   16       -1.210403
   17       -1.122905
   18       -0.903173
   19        1.437754
   20        1.525990
   21        1.881667
   22        1.890463
   23        2.261409
   24        2.382518
 
 -0.4166667E+00  0.1388889E+00  0.1262379E-14  0.6172840E-02
    1      -10.798970
    2      -10.563613
    3      -10.248930
    4       -9.976719
    5       -4.880585
    6       -4.397594
    7       -4.365632
    8       -3.904608
    9       -3.349920
   10       -2.997490
   11       -2.775457
   12       -2.546361
   13       -2.020799
   14       -1.825813
   15       -1.352814
   16       -1.284129
   17       -1.065713
   18       -0.671466
   19        1.255338
   20        1.510206
   21        1.847611
   22        1.959012
   23        2.276629
   24        2.483609
 
 -0.3611111E+00  0.1388889E+00  0.1262379E-14  0.6172840E-02
    1      -11.124074
    2      -10.732070
    3      -10.310564
    4       -9.961517
    5       -4.710406
    6       -4.330904
    7       -4.077594
    8       -3.597304
    9       -3.365640
   10       -2.899735
   11       -2.799110
   12       -2.778617
   13       -2.150404
   14       -1.641018
   15       -1.339549
   16       -1.300978
   17       -0.891161
   18       -0.471500
   19        1.024378
   20        1.427644
   21        1.761841
   22        2.084477
   23        2.376466
   24        2.558111
 
 -0.3055556E+00  0.1388889E+00  0.1262379E-14  0.6172840E-02
    1      -11.451735
    2      -10.920243
    3      -10.408722
    4      -10.032306
    5       -4.517941
    6       -4.227610
    7       -3.914889
    8       -3.523773
    9       -3.298362
   10       -2.793942
   11       -2.712960
   12       -2.615911
   13       -2.255135
   14       -1.495915
   15       -1.266443
   16       -1.212587
   17       -0.707045
   18       -0.311676
   19        0.791137
   20        1.366484
   21        1.720578
   22        2.157731
   23        2.354579
   24        2.707417
 
 -0.2500000E+00  0.1388889E+00  0.1262379E-14  0.6172840E-02
    1      -11.751414
    2      -11.104142
    3      -10.528101
    4      -10.151281
    5       -4.545830
    6       -4.217861
    7       -3.817289
    8       -3.431233
    9       -3.221701
   10       -2.662793
   11       -2.624167
   12       -2.372826
   13       -1.928201
   14       -1.430742
   15       -1.126747
   16       -1.002390
   17       -0.535346
   18       -0.191415
   19        0.594715
   20        1.370154
   21        1.792771
   22        2.102824
   23        2.379678
   24        2.725800
 
 -0.1944444E+00  0.1388889E+00  0.1262379E-14  0.6172840E-02
    1      -12.005677
    2      -11.267265
    3      -10.648872
    4      -10.281389
    5       -4.748249
    6       -4.191795
    7       -3.996197
    8       -3.382091