       N       E                     dE             d eps       ncg     rms          rms(c)
DAV:   1     0.186008172762E+03    0.18601E+03   -0.95555E+03  7776   0.792E+02
DAV:   2    -0.182301226071E+02   -0.20424E+03   -0.19913E+03 11536   0.177E+02
DAV:   3    -0.367451522926E+02   -0.18515E+02   -0.18279E+02 10304   0.595E+01
DAV:   4    -0.374132807561E+02   -0.66813E+00   -0.66592E+00 12448   0.127E+01
DAV:   5    -0.374236338813E+02   -0.10353E-01   -0.10347E-01 11256   0.175E+00    0.216E+01
DAV:   6    -0.364877776505E+02    0.93586E+00   -0.43919E+00 10832   0.976E+00    0.868E+00
DAV:   7    -0.365180432545E+02   -0.30266E-01   -0.60142E+00  9936   0.117E+01    0.654E+00
DAV:   8    -0.360061473266E+02    0.51190E+00   -0.14432E+00 10216   0.632E+00    0.230E+00
DAV:   9    -0.359979022619E+02    0.82451E-02   -0.34086E-01 11832   0.273E+00    0.110E+00
DAV:  10    -0.359919676482E+02    0.59346E-02   -0.33029E-02 10304   0.984E-01    0.512E-01
DAV:  11    -0.359907312359E+02    0.12364E-02   -0.73359E-03 11000   0.465E-01    0.259E-01
DAV:  12    -0.359901979321E+02    0.53330E-03   -0.31616E-03 11376   0.302E-01    0.107E-01
DAV:  13    -0.359900401850E+02    0.15775E-03   -0.85268E-04 11472   0.150E-01    0.466E-02
DAV:  14    -0.359898217085E+02    0.21848E-03   -0.19104E-04  9520   0.585E-02    0.352E-02
DAV:  15    -0.359895703828E+02    0.25133E-03   -0.38339E-04  9640   0.722E-02    0.350E-02
DAV:  16    -0.359896093735E+02   -0.38991E-04   -0.21406E-05 11328   0.205E-02    0.271E-02
DAV:  17    -0.359897658586E+02   -0.15649E-03   -0.22883E-05 10928   0.230E-02    0.687E-03
DAV:  18    -0.359898854669E+02   -0.11961E-03   -0.19972E-05  9256   0.174E-02    0.151E-02
DAV:  19    -0.359899614483E+02   -0.75981E-04   -0.28983E-06  8968   0.782E-03    0.270E-03
DAV:  20    -0.359900174636E+02   -0.56015E-04   -0.15950E-06  7344   0.580E-03    0.482E-03
DAV:  21    -0.359900315650E+02   -0.14101E-04   -0.31049E-07  6344   0.220E-03    0.182E-03
DAV:  22    -0.359900382198E+02   -0.66548E-05   -0.28881E-07  6320   0.165E-03    0.147E-03
DAV:  23    -0.359900394332E+02   -0.12134E-05   -0.13102E-07  5960   0.139E-03    0.913E-04
DAV:  24    -0.359900395319E+02   -0.98646E-07   -0.24911E-08  5288   0.745E-04
   1 F= -.35990040E+02 E0= -.35982262E+02  d E =-.359900E+02
       N       E                     dE             d eps       ncg     rms          rms(c)
DAV:   1    -0.359900603904E+02   -0.20957E-04   -0.51032E-03  7840   0.343E-01    0.331E-02
DAV:   2    -0.359900627605E+02   -0.23701E-05   -0.58496E-05 10368   0.413E-02    0.148E-02
DAV:   3    -0.359900617735E+02    0.98699E-06   -0.35516E-06  7928   0.107E-02
   2 F= -.35990062E+02 E0= -.35982265E+02  d E =-.222417E-04
       N       E                     dE             d eps       ncg     rms          rms(c)
DAV:   1    -0.359900611718E+02    0.15888E-05   -0.82686E-06  8576   0.150E-02    0.651E-03
DAV:   2    -0.359900608671E+02    0.30465E-06   -0.22124E-06  5824   0.839E-03
   3 F= -.35990061E+02 E0= -.35982264E+02  d E =-.213352E-04
