<?xml version="1.0" encoding="ISO-8859-1"?>
<modeling>
 <generator>
  <i name="program" type="string">vasp </i>
  <i name="version" type="string">5.3.5  </i>
  <i name="subversion" type="string">31Mar14 (build Mar 18 2017 11:34:20) complex                          parallel </i>
  <i name="platform" type="string">LinuxIFC </i>
  <i name="date" type="string">2017 10 27 </i>
  <i name="time" type="string">23:37:46 </i>
 </generator>
 <incar>
  <i type="string" name="SYSTEM"> 2D MoTe2 in a box</i>
  <i type="string" name="PREC">accurate</i>
  <i type="string" name="ALGO"> Normal</i>
  <i type="int" name="NELMDL">    -5</i>
  <i type="int" name="IBRION">     2</i>
  <i name="EDIFF">      0.00000100</i>
  <i type="int" name="NSW">  1000</i>
  <i type="int" name="ISIF">     2</i>
  <i type="int" name="ISYM">     0</i>
  <i name="ENCUT">    350.00000000</i>
  <i name="POTIM">      0.50000000</i>
  <i name="NELECT">     35.98000000</i>
  <i type="logical" name="LREAL"> F  </i>
  <i type="int" name="ISMEAR">    -1</i>
  <i name="SIGMA">      0.06035217</i>
  <i type="int" name="NWRITE">     3</i>
  <i type="logical" name="LWAVE"> F  </i>
  <i type="logical" name="LCHARG"> F  </i>
 </incar>
 <kpoints>
  <generation param="Monkhorst-Pack">
   <v type="int" name="divisions">      18       18        1 </v>
   <v name="usershift">      0.00000000       0.00000000       0.00000000 </v>
   <v name="genvec1">      0.05555556       0.00000000       0.00000000 </v>
   <v name="genvec2">      0.00000000       0.05555556       0.00000000 </v>
   <v name="genvec3">      0.00000000       0.00000000       1.00000000 </v>
   <v name="shift">      0.50000000       0.50000000       0.00000000 </v>
  </generation>
  <varray name="kpointlist" >
   <v>       0.02777778       0.02777778       0.00000000 </v>
   <v>       0.08333333       0.02777778       0.00000000 </v>
   <v>       0.13888889       0.02777778       0.00000000 </v>
   <v>       0.19444444       0.02777778       0.00000000 </v>
   <v>       0.25000000       0.02777778       0.00000000 </v>
   <v>       0.30555556       0.02777778       0.00000000 </v>
   <v>       0.36111111       0.02777778       0.00000000 </v>
   <v>       0.41666667       0.02777778       0.00000000 </v>
   <v>       0.47222222       0.02777778       0.00000000 </v>
   <v>      -0.47222222       0.02777778       0.00000000 </v>
   <v>      -0.41666667       0.02777778       0.00000000 </v>
   <v>      -0.36111111       0.02777778       0.00000000 </v>
   <v>      -0.30555556       0.02777778       0.00000000 </v>
   <v>      -0.25000000       0.02777778       0.00000000 </v>
   <v>      -0.19444444       0.02777778       0.00000000 </v>
   <v>      -0.13888889       0.02777778       0.00000000 </v>
   <v>      -0.08333333       0.02777778       0.00000000 </v>
   <v>      -0.02777778       0.02777778       0.00000000 </v>
   <v>       0.02777778       0.08333333       0.00000000 </v>
   <v>       0.08333333       0.08333333       0.00000000 </v>
   <v>       0.13888889       0.08333333       0.00000000 </v>
   <v>       0.19444444       0.08333333       0.00000000 </v>
   <v>       0.25000000       0.08333333       0.00000000 </v>
   <v>       0.30555556       0.08333333       0.00000000 </v>
   <v>       0.36111111       0.08333333       0.00000000 </v>
   <v>       0.41666667       0.08333333       0.00000000 </v>
   <v>       0.47222222       0.08333333       0.00000000 </v>
   <v>      -0.47222222       0.08333333       0.00000000 </v>
   <v>      -0.41666667       0.08333333       0.00000000 </v>
   <v>      -0.36111111       0.08333333       0.00000000 </v>
   <v>      -0.30555556       0.08333333       0.00000000 </v>
   <v>      -0.25000000       0.08333333       0.00000000 </v>
   <v>      -0.19444444       0.08333333       0.00000000 </v>
   <v>      -0.13888889       0.08333333       0.00000000 </v>
   <v>      -0.08333333       0.08333333       0.00000000 </v>
   <v>      -0.02777778       0.08333333       0.00000000 </v>
   <v>       0.02777778       0.13888889       0.00000000 </v>
   <v>       0.08333333       0.13888889       0.00000000 </v>
   <v>       0.13888889       0.13888889       0.00000000 </v>
   <v>       0.19444444       0.13888889       0.00000000 </v>
   <v>       0.25000000       0.13888889       0.00000000 </v>
   <v>       0.30555556       0.13888889       0.00000000 </v>
   <v>       0.36111111       0.13888889       0.00000000 </v>
   <v>       0.41666667       0.13888889       0.00000000 </v>
   <v>       0.47222222       0.13888889       0.00000000 </v>
   <v>      -0.47222222       0.13888889       0.00000000 </v>
   <v>      -0.41666667       0.13888889       0.00000000 </v>
   <v>      -0.36111111       0.13888889       0.00000000 </v>
   <v>      -0.30555556       0.13888889       0.00000000 </v>
   <v>      -0.25000000       0.13888889       0.00000000 </v>
   <v>      -0.19444444       0.13888889       0.00000000 </v>
   <v>      -0.13888889       0.13888889       0.00000000 </v>
   <v>      -0.08333333       0.13888889       0.00000000 </v>
   <v>      -0.02777778       0.13888889       0.00000000 </v>
   <v>       0.02777778       0.19444444       0.00000000 </v>
   <v>       0.08333333       0.19444444       0.00000000 </v>
   <v>       0.13888889       0.19444444       0.00000000 </v>
   <v>       0.19444444       0.19444444       0.00000000 </v>
   <v>       0.25000000       0.19444444       0.00000000 </v>
   <v>       0.30555556       0.19444444       0.00000000 </v>
   <v>       0.36111111       0.19444444       0.00000000 </v>
   <v>       0.41666667       0.19444444       0.00000000 </v>
   <v>       0.47222222       0.19444444       0.00000000 </v>
   <v>      -0.47222222       0.19444444       0.00000000 </v>
   <v>      -0.41666667       0.19444444       0.00000000 </v>
   <v>      -0.36111111       0.19444444       0.00000000 </v>
   <v>      -0.30555556       0.19444444       0.00000000 </v>
   <v>      -0.25000000       0.19444444       0.00000000 </v>
   <v>      -0.19444444       0.19444444       0.00000000 </v>
   <v>      -0.13888889       0.19444444       0.00000000 </v>
   <v>      -0.08333333       0.19444444       0.00000000 </v>
   <v>      -0.02777778       0.19444444       0.00000000 </v>
   <v>       0.02777778       0.25000000       0.00000000 </v>
   <v>       0.08333333       0.25000000       0.00000000 </v>
   <v>       0.13888889       0.25000000       0.00000000 </v>
   <v>       0.19444444       0.25000000       0.00000000 </v>
   <v>       0.25000000       0.25000000       0.00000000 </v>
   <v>       0.30555556       0.25000000       0.00000000 </v>
   <v>       0.36111111       0.25000000       0.00000000 </v>
   <v>       0.41666667       0.25000000       0.00000000 </v>
   <v>       0.47222222       0.25000000       0.00000000 </v>
   <v>      -0.47222222       0.25000000       0.00000000 </v>
   <v>      -0.41666667       0.25000000       0.00000000 </v>
   <v>      -0.36111111       0.25000000       0.00000000 </v>
   <v>      -0.30555556       0.25000000       0.00000000 </v>
   <v>      -0.25000000       0.25000000       0.00000000 </v>
   <v>      -0.19444444       0.25000000       0.00000000 </v>
   <v>      -0.13888889       0.25000000       0.00000000 </v>
   <v>      -0.08333333       0.25000000       0.00000000 </v>
   <v>      -0.02777778       0.25000000       0.00000000 </v>
   <v>       0.02777778       0.30555556       0.00000000 </v>
   <v>       0.08333333       0.30555556       0.00000000 </v>
   <v>       0.13888889       0.30555556       0.00000000 </v>
   <v>       0.19444444       0.30555556       0.00000000 </v>
   <v>       0.25000000       0.30555556       0.00000000 </v>
   <v>       0.30555556       0.30555556       0.00000000 </v>
   <v>       0.36111111       0.30555556       0.00000000 </v>
   <v>       0.41666667       0.30555556       0.00000000 </v>
   <v>       0.47222222       0.30555556       0.00000000 </v>
   <v>      -0.47222222       0.30555556       0.00000000 </v>
   <v>      -0.41666667       0.30555556       0.00000000 </v>
   <v>      -0.36111111       0.30555556       0.00000000 </v>
   <v>      -0.30555556       0.30555556       0.00000000 </v>
   <v>      -0.25000000       0.30555556       0.00000000 </v>
   <v>      -0.19444444       0.30555556       0.00000000 </v>
   <v>      -0.13888889       0.30555556       0.00000000 </v>
   <v>      -0.08333333       0.30555556       0.00000000 </v>
   <v>      -0.02777778       0.30555556       0.00000000 </v>
   <v>       0.02777778       0.36111111       0.00000000 </v>
   <v>       0.08333333       0.36111111       0.00000000 </v>
   <v>       0.13888889       0.36111111       0.00000000 </v>
   <v>       0.19444444       0.36111111       0.00000000 </v>
   <v>       0.25000000       0.36111111       0.00000000 </v>
   <v>       0.30555556       0.36111111       0.00000000 </v>
   <v>       0.36111111       0.36111111       0.00000000 </v>
   <v>       0.41666667       0.36111111       0.00000000 </v>
   <v>       0.47222222       0.36111111       0.00000000 </v>
   <v>      -0.47222222       0.36111111       0.00000000 </v>
   <v>      -0.41666667       0.36111111       0.00000000 </v>
   <v>      -0.36111111       0.36111111       0.00000000 </v>
   <v>      -0.30555556       0.36111111       0.00000000 </v>
   <v>      -0.25000000       0.36111111       0.00000000 </v>
   <v>      -0.19444444       0.36111111       0.00000000 </v>
   <v>      -0.13888889       0.36111111       0.00000000 </v>
   <v>      -0.08333333       0.36111111       0.00000000 </v>
   <v>      -0.02777778       0.36111111       0.00000000 </v>
   <v>       0.02777778       0.41666667       0.00000000 </v>
   <v>       0.08333333       0.41666667       0.00000000 </v>
   <v>       0.13888889       0.41666667       0.00000000 </v>
   <v>       0.19444444       0.41666667       0.00000000 </v>
   <v>       0.25000000       0.41666667       0.00000000 </v>
   <v>       0.30555556       0.41666667       0.00000000 </v>
   <v>       0.36111111       0.41666667       0.00000000 </v>
   <v>       0.41666667       0.41666667       0.00000000 </v>
   <v>       0.47222222       0.41666667       0.00000000 </v>
   <v>      -0.47222222       0.41666667       0.00000000 </v>
   <v>      -0.41666667       0.41666667       0.00000000 </v>
   <v>      -0.36111111       0.41666667       0.00000000 </v>
   <v>      -0.30555556       0.41666667       0.00000000 </v>
   <v>      -0.25000000       0.41666667       0.00000000 </v>
   <v>      -0.19444444       0.41666667       0.00000000 </v>
   <v>      -0.13888889       0.41666667       0.00000000 </v>
   <v>      -0.08333333       0.41666667       0.00000000 </v>
   <v>      -0.02777778       0.41666667       0.00000000 </v>
   <v>       0.02777778       0.47222222       0.00000000 </v>
   <v>       0.08333333       0.47222222       0.00000000 </v>
   <v>       0.13888889       0.47222222       0.00000000 </v>
   <v>       0.19444444       0.47222222       0.00000000 </v>
   <v>       0.25000000       0.47222222       0.00000000 </v>
   <v>       0.30555556       0.47222222       0.00000000 </v>
   <v>       0.36111111       0.47222222       0.00000000 </v>
   <v>       0.41666667       0.47222222       0.00000000 </v>
   <v>       0.47222222       0.47222222       0.00000000 </v>
   <v>      -0.47222222       0.47222222       0.00000000 </v>
   <v>      -0.41666667       0.47222222       0.00000000 </v>
   <v>      -0.36111111       0.47222222       0.00000000 </v>
   <v>      -0.30555556       0.47222222       0.00000000 </v>
   <v>      -0.25000000       0.47222222       0.00000000 </v>
   <v>      -0.19444444       0.47222222       0.00000000 </v>
   <v>      -0.13888889       0.47222222       0.00000000 </v>
   <v>      -0.08333333       0.47222222       0.00000000 </v>
   <v>      -0.02777778       0.47222222       0.00000000 </v>
  </varray>
  <varray name="weights" >
   <v>       0.00617284 </v>
   <v>       0.00617284 </v>
   <v>       0.00617284 </v>
   <v>       0.00617284 </v>
   <v>       0.00617284 </v>
   <v>       0.00617284 </v>
   <v>       0.00617284 </v>
   <v>       0.00617284 </v>
   <v>       0.00617284 </v>
   <v>       0.00617284 </v>
   <v>       0.00617284 </v>
   <v>       0.00617284 </v>
   <v>       0.00617284 </v>
   <v>       0.00617284 </v>
   <v>       0.00617284 </v>
   <v>       0.00617284 </v>
   <v>       0.00617284 </v>
   <v>       0.00617284 </v>
   <v>       0.00617284 </v>
   <v>       0.00617284 </v>
   <v>       0.00617284 </v>
   <v>       0.00617284 </v>
   <v>       0.00617284 </v>
   <v>       0.00617284 </v>
   <v>       0.00617284 </v>
   <v>       0.00617284 </v>
   <v>       0.00617284 </v>
   <v>       0.00617284 </v>
   <v>       0.00617284 </v>
   <v>       0.00617284 </v>
   <v>       0.00617284 </v>
   <v>       0.00617284 </v>
   <v>       0.00617284 </v>
   <v>       0.00617284 </v>
   <v>       0.00617284 </v>
   <v>       0.00617284 </v>
   <v>       0.00617284 </v>
   <v>       0.00617284 </v>
   <v>       0.00617284 </v>
   <v>       0.00617284 </v>
   <v>       0.00617284 </v>
   <v>       0.00617284 </v>
   <v>       0.00617284 </v>
   <v>       0.00617284 </v>
   <v>       0.00617284 </v>
   <v>       0.00617284 </v>
   <v>       0.00617284 </v>
   <v>       0.00617284 </v>
   <v>       0.00617284 </v>
   <v>       0.00617284 </v>
   <v>       0.00617284 </v>
   <v>       0.00617284 </v>
   <v>       0.00617284 </v>
   <v>       0.00617284 </v>
   <v>       0.00617284 </v>
   <v>       0.00617284 </v>
   <v>       0.00617284 </v>
   <v>       0.00617284 </v>
   <v>       0.00617284 </v>
   <v>       0.00617284 </v>
   <v>       0.00617284 </v>
   <v>       0.00617284 </v>
   <v>       0.00617284 </v>
   <v>       0.00617284 </v>
   <v>       0.00617284 </v>
   <v>       0.00617284 </v>
   <v>       0.00617284 </v>
   <v>       0.00617284 </v>
   <v>       0.00617284 </v>
   <v>       0.00617284 </v>
   <v>       0.00617284 </v>
   <v>       0.00617284 </v>
   <v>       0.00617284 </v>
   <v>       0.00617284 </v>
   <v>       0.00617284 </v>
   <v>       0.00617284 </v>
   <v>       0.00617284 </v>
   <v>       0.00617284 </v>
   <v>       0.00617284 </v>
   <v>       0.00617284 </v>
   <v>       0.00617284 </v>
   <v>       0.00617284 </v>
   <v>       0.00617284 </v>
   <v>       0.00617284 </v>
   <v>       0.00617284 </v>
   <v>       0.00617284 </v>
   <v>       0.00617284 </v>
   <v>       0.00617284 </v>
   <v>       0.00617284 </v>
   <v>       0.00617284 </v>
   <v>       0.00617284 </v>
   <v>       0.00617284 </v>
   <v>       0.00617284 </v>
   <v>       0.00617284 </v>
   <v>       0.00617284 </v>
   <v>       0.00617284 </v>
   <v>       0.00617284 </v>
   <v>       0.00617284 </v>
   <v>       0.00617284 </v>
   <v>       0.00617284 </v>
   <v>       0.00617284 </v>
   <v>       0.00617284 </v>
   <v>       0.00617284 </v>
   <v>       0.00617284 </v>
   <v>       0.00617284 </v>
   <v>       0.00617284 </v>
   <v>       0.00617284 </v>
   <v>       0.00617284 </v>
   <v>       0.00617284 </v>
   <v>       0.00617284 </v>
   <v>       0.00617284 </v>
   <v>       0.00617284 </v>
   <v>       0.00617284 </v>
   <v>       0.00617284 </v>
   <v>       0.00617284 </v>
   <v>       0.00617284 </v>
   <v>       0.00617284 </v>
   <v>       0.00617284 </v>
   <v>       0.00617284 </v>
   <v>       0.00617284 </v>
   <v>       0.00617284 </v>
   <v>       0.00617284 </v>
   <v>       0.00617284 </v>
   <v>       0.00617284 </v>
   <v>       0.00617284 </v>
   <v>       0.00617284 </v>
   <v>       0.00617284 </v>
   <v>       0.00617284 </v>
   <v>       0.00617284 </v>
   <v>       0.00617284 </v>
   <v>       0.00617284 </v>
   <v>       0.00617284 </v>
   <v>       0.00617284 </v>
   <v>       0.00617284 </v>
   <v>       0.00617284 </v>
   <v>       0.00617284 </v>
   <v>       0.00617284 </v>
   <v>       0.00617284 </v>
   <v>       0.00617284 </v>
   <v>       0.00617284 </v>
   <v>       0.00617284 </v>
   <v>       0.00617284 </v>
   <v>       0.00617284 </v>
   <v>       0.00617284 </v>
   <v>       0.00617284 </v>
   <v>       0.00617284 </v>
   <v>       0.00617284 </v>
   <v>       0.00617284 </v>
   <v>       0.00617284 </v>
   <v>       0.00617284 </v>
   <v>       0.00617284 </v>
   <v>       0.00617284 </v>
   <v>       0.00617284 </v>
   <v>       0.00617284 </v>
   <v>       0.00617284 </v>
   <v>       0.00617284 </v>
   <v>       0.00617284 </v>
   <v>       0.00617284 </v>
   <v>       0.00617284 </v>
   <v>       0.00617284 </v>
   <v>       0.00617284 </v>
   <v>       0.00617284 </v>
  </varray>
 </kpoints>
 <parameters>
  <separator name="general" >
   <i type="string" name="SYSTEM">2D MoTe2 in a box</i>
   <i type="logical" name="LCOMPAT"> F  </i>
  </separator>
  <separator name="electronic" >
   <i type="string" name="PREC">accura</i>
   <i name="ENMAX">    350.00000000</i>
   <i name="ENAUG">    368.79200000</i>
   <i name="EDIFF">      0.00000100</i>
   <i type="int" name="IALGO">    38</i>
   <i type="int" name="IWAVPR">    11</i>
   <i type="int" name="NBANDS">    24</i>
   <i name="NELECT">     35.98000000</i>
   <i type="int" name="TURBO">     0</i>
   <i type="int" name="IRESTART">     0</i>
   <i type="int" name="NREBOOT">     0</i>
   <i type="int" name="NMIN">     0</i>
   <i name="EREF">      0.00000000</i>
   <separator name="electronic smearing" >
    <i type="int" name="ISMEAR">    -1</i>
    <i name="SIGMA">      0.06035217</i>
    <i name="KSPACING">      0.50000000</i>
    <i type="logical" name="KGAMMA"> T  </i>
   </separator>
   <separator name="electronic projectors" >
    <i type="logical" name="LREAL"> F  </i>
    <v name="ROPT">      0.00000000      0.00000000</v>
    <i type="int" name="LMAXPAW">  -100</i>
    <i type="int" name="LMAXMIX">     2</i>
    <i type="logical" name="NLSPLINE"> F  </i>
   </separator>
   <separator name="electronic startup" >
    <i type="int" name="ISTART">     0</i>
    <i type="int" name="ICHARG">     2</i>
    <i type="int" name="INIWAV">     1</i>
   </separator>
   <separator name="electronic spin" >
    <i type="int" name="ISPIN">     1</i>
    <i type="logical" name="LNONCOLLINEAR"> F  </i>
    <v name="MAGMOM">      1.00000000      1.00000000      1.00000000      1.00000000      1.00000000      1.00000000</v>
    <i name="NUPDOWN">     -1.00000000</i>
    <i type="logical" name="LSORBIT"> F  </i>
    <v name="SAXIS">      0.00000000      0.00000000      1.00000000</v>
    <i type="logical" name="LSPIRAL"> F  </i>
    <v name="QSPIRAL">      0.00000000      0.00000000      0.00000000</v>
    <i type="logical" name="LZEROZ"> F  </i>
   </separator>
   <separator name="electronic exchange-correlation" >
    <i type="logical" name="LASPH"> F  </i>
    <i type="logical" name="LMETAGGA"> F  </i>
   </separator>
   <separator name="electronic convergence" >
    <i type="int" name="NELM">    60</i>
    <i type="int" name="NELMDL">    -5</i>
    <i type="int" name="NELMIN">     2</i>
    <i name="ENINI">    350.00000000</i>
    <separator name="electronic convergence detail" >
     <i type="logical" name="LDIAG"> T  </i>
     <i type="logical" name="LSUBROT"> F  </i>
     <i name="WEIMIN">      0.00100000</i>
     <i name="EBREAK">      0.00000001</i>
     <i name="DEPER">      0.30000000</i>
     <i type="int" name="NRMM">     4</i>
     <i name="TIME">      0.40000000</i>
    </separator>
   </separator>
   <separator name="electronic mixer" >
    <i name="AMIX">      0.40000000</i>
    <i name="BMIX">      1.00000000</i>
    <i name="AMIN">      0.10000000</i>
    <i name="AMIX_MAG">      1.60000000</i>
    <i name="BMIX_MAG">      1.00000000</i>
    <separator name="electronic mixer details" >
     <i type="int" name="IMIX">     4</i>
     <i type="int" name="MAXMIX">   -45</i>
     <i name="WC">    100.00000000</i>
     <i type="int" name="INIMIX">     1</i>
     <i type="int" name="MIXPRE">     1</i>
     <i type="int" name="MREMOVE">     5</i>
    </separator>
   </separator>
   <separator name="electronic dipolcorrection" >
    <i type="logical" name="LDIPOL"> F  </i>
    <i type="logical" name="LMONO"> F  </i>
    <i type="int" name="IDIPOL">     0</i>
    <i name="EPSILON">      1.00000000</i>
    <v name="DIPOL">   -100.00000000   -100.00000000   -100.00000000</v>
    <i name="EFIELD">      0.00000000</i>
   </separator>
  </separator>
  <separator name="grids" >
   <i type="int" name="NGX">    24</i>
   <i type="int" name="NGY">    40</i>
   <i type="int" name="NGZ">    98</i>
   <i type="int" name="NGXF">    48</i>
   <i type="int" name="NGYF">    80</i>
   <i type="int" name="NGZF">   196</i>
   <i type="logical" name="ADDGRID"> F  </i>
  </separator>
  <separator name="ionic" >
   <i type="int" name="NSW">  1000</i>
   <i type="int" name="IBRION">     2</i>
   <i type="int" name="ISIF">     2</i>
   <i name="PSTRESS">      0.00000000</i>
   <i name="EDIFFG">      0.00001000</i>
   <i type="int" name="NFREE">     1</i>
   <i name="POTIM">      0.50000000</i>
   <i name="SMASS">     -3.00000000</i>
   <i name="SCALEE">      1.00000000</i>
  </separator>
  <separator name="ionic md" >
   <i name="TEBEG">      0.00010000</i>
   <i name="TEEND">      0.00010000</i>
   <i type="int" name="NBLOCK">     1</i>
   <i type="int" name="KBLOCK">  1000</i>
   <i type="int" name="NPACO">   256</i>
   <i name="APACO">     16.00000000</i>
  </separator>
  <separator name="symmetry" >
   <i type="int" name="ISYM">     0</i>
   <i name="SYMPREC">      0.00001000</i>
  </separator>
  <separator name="dos" >
   <i type="logical" name="LORBIT"> F  </i>
   <v name="RWIGS">     -1.00000000     -1.00000000</v>
   <i type="int" name="NEDOS">   301</i>
   <i name="EMIN">     10.00000000</i>
   <i name="EMAX">    -10.00000000</i>
   <i name="EFERMI">      0.00000000</i>
  </separator>
  <separator name="writing" >
   <i type="int" name="NWRITE">     3</i>
   <i type="logical" name="LWAVE"> F  </i>
   <i type="logical" name="LCHARG"> F  </i>
   <i type="logical" name="LPARD"> F  </i>
   <i type="logical" name="LVTOT"> F  </i>
   <i type="logical" name="LVHAR"> F  </i>
   <i type="logical" name="LELF"> F  </i>
   <i type="logical" name="LOPTICS"> F  </i>
   <v name="STM">      0.00000000      0.00000000      0.00000000      0.00000000      0.00000000      0.00000000      0.00000000</v>
  </separator>
  <separator name="performance" >
   <i type="int" name="NPAR">     8</i>
   <i type="int" name="NSIM">     4</i>
   <i type="int" name="NBLK">    -1</i>
   <i type="logical" name="LPLANE"> T  </i>
   <i type="logical" name="LSCALAPACK"> T  </i>
   <i type="logical" name="LSCAAWARE"> F  </i>
   <i type="logical" name="LSCALU"> F  </i>
   <i type="logical" name="LASYNC"> F  </i>
   <i type="logical" name="LORBITALREAL"> F  </i>
  </separator>
  <separator name="miscellaneous" >
   <i type="int" name="IDIOT">     3</i>
   <i type="logical" name="LMUSIC"> F  </i>
   <v name="POMASS">    127.60000000     95.94000000</v>
   <v name="DARWINR">      0.00000000      0.00000000</v>
   <v name="DARWINV">      1.00000000      1.00000000</v>
   <i type="logical" name="LCORR"> T  </i>
  </separator>
  <i type="logical" name="GGA_COMPAT"> T  </i>
  <i type="logical" name="LBERRY"> F  </i>
  <i type="int" name="ICORELEVEL">     0</i>
  <i type="logical" name="LDAU"> F  </i>
  <i type="int" name="I_CONSTRAINED_M">     0</i>
  <separator name="electronic exchange-correlation" >
   <i type="string" name="GGA">--</i>
   <i type="int" name="VOSKOWN">     0</i>
   <i type="logical" name="LHFCALC"> F  </i>
   <i type="string" name="PRECFOCK"></i>
   <i type="logical" name="LSYMGRAD"> F  </i>
   <i type="logical" name="LHFONE"> F  </i>
   <i type="logical" name="LRHFCALC"> F  </i>
   <i type="logical" name="LTHOMAS"> F  </i>
   <i type="logical" name="LMODELHF"> F  </i>
   <i name="ENCUT4O">     -1.00000000</i>
   <i type="int" name="EXXOEP">     0</i>
   <i type="int" name="FOURORBIT">     0</i>
   <i name="AEXX">      0.00000000</i>
   <i name="HFALPHA">      0.00000000</i>
   <i name="MCALPHA">      0.00000000</i>
   <i name="ALDAX">      1.00000000</i>
   <i name="AGGAX">      1.00000000</i>
   <i name="ALDAC">      1.00000000</i>
   <i name="AGGAC">      1.00000000</i>
   <i type="int" name="NKREDX">     1</i>
   <i type="int" name="NKREDY">     1</i>
   <i type="int" name="NKREDZ">     1</i>
   <i type="logical" name="SHIFTRED"> F  </i>
   <i type="logical" name="ODDONLY"> F  </i>
   <i type="logical" name="EVENONLY"> F  </i>
   <i type="int" name="LMAXFOCK">     0</i>
   <i type="int" name="NMAXFOCKAE">     0</i>
   <i type="logical" name="LFOCKAEDFT"> F  </i>
   <i name="HFSCREEN">      0.00000000</i>
   <i name="HFSCREENC">      0.00000000</i>
   <i type="int" name="NBANDSGWLOW">     0</i>
  </separator>
  <separator name="vdW DFT" >
   <i type="logical" name="LUSE_VDW"> F  </i>
   <i name="Zab_VDW">     -0.84910000</i>
   <i name="PARAM1">      0.12340000</i>
   <i name="PARAM2">      1.00000000</i>
   <i name="PARAM3">      0.00000000</i>
  </separator>
  <separator name="model GW" >
   <i type="int" name="MODEL_GW">     0</i>
   <i name="MODEL_EPS0">     35.17173760</i>
   <i name="MODEL_ALPHA">      1.00000000</i>
  </separator>
  <separator name="linear response parameters" >
   <i type="logical" name="LEPSILON"> F  </i>
   <i type="logical" name="LRPA"> F  </i>
   <i type="logical" name="LNABLA"> F  </i>
   <i type="logical" name="LVEL"> F  </i>
   <i type="int" name="KINTER">     0</i>
   <i name="CSHIFT">      0.10000000</i>
   <i name="OMEGAMAX">     -1.00000000</i>
   <i name="DEG_THRESHOLD">      0.00200000</i>
  </separator>
  <separator name="orbital magnetization" >
   <i type="logical" name="NUCIND"> F  </i>
   <v name="MAGPOS">      0.00000000      0.00000000      0.00000000</v>
   <i type="logical" name="LNICSALL"> T  </i>
   <i type="logical" name="ORBITALMAG"> F  </i>
   <i type="logical" name="LMAGBLOCH"> F  </i>
   <i type="logical" name="LCHIMAG"> F  </i>
   <i type="logical" name="LGAUGE"> T  </i>
   <i type="int" name="MAGATOM">     0</i>
   <v name="MAGDIPOL">      0.00000000      0.00000000      0.00000000</v>
   <v name="AVECCONST">      0.00000000      0.00000000      0.00000000</v>
  </separator>
  <separator name="response functions" >
   <i type="logical" name="LADDER"> F  </i>
   <i type="logical" name="LFXC"> F  </i>
   <i type="logical" name="LHARTREE"> T  </i>
   <i type="int" name="IBSE">     0</i>
   <i type="logical" name="LTCTE"> F  </i>
   <i type="logical" name="LTETE"> F  </i>
   <i type="logical" name="LTRIPLET"> F  </i>
   <i type="logical" name="LFXCEPS"> F  </i>
   <i type="logical" name="LFXHEG"> F  </i>
   <i type="logical" name="L2ORDER"> F  </i>
   <i type="logical" name="LUSEW"> F  </i>
   <i name="ENCUTGW">     -2.00000000</i>
   <i name="ENCUTGWSOFT">     -2.00000000</i>
   <i name="ENCUTLF">     -1.00000000</i>
   <i type="int" name="LMAXMP2">    -1</i>
   <i name="SCISSOR">      0.00000000</i>
   <i type="int" name="NOMEGA">     0</i>
   <i type="int" name="NOMEGAR">     0</i>
   <i type="int" name="NBANDSGW">    -1</i>
   <i type="int" name="NBANDSO">    -1</i>
   <i type="int" name="NBANDSV">    -1</i>
   <i type="int" name="NELM">     1</i>
   <i type="int" name="DIM">     3</i>
   <i type="int" name="ANTIRES">     0</i>
   <i name="OMEGAMAX">    -30.00000000</i>
   <i name="OMEGAMIN">    -30.00000000</i>
   <i name="OMEGATL">   -200.00000000</i>
   <i type="int" name="OMEGAGRID">     0</i>
   <i name="CSHIFT">     -0.10000000</i>
   <i type="logical" name="SELFENERGY"> F  </i>
   <i type="logical" name="LSPECTRAL"> F  </i>
   <i type="logical" name="ODDONLYGW"> F  </i>
   <i type="logical" name="EVENONLYGW"> F  </i>
   <i type="int" name="NKREDLFX">     1</i>
   <i type="int" name="NKREDLFY">     1</i>
   <i type="int" name="NKREDLFZ">     1</i>
   <i type="int" name="MAXMEM">  1800</i>
   <i type="int" name="TELESCOPE">     0</i>
   <i type="int" name="TAUPAR">     1</i>
  </separator>
  <separator name="External order field" >
   <i name="OFIELD_KAPPA">      0.00000000</i>
   <v name="OFIELD_K">      0.00000000      0.00000000      0.00000000</v>
   <i name="OFIELD_Q6_NEAR">      0.00000000</i>
   <i name="OFIELD_Q6_FAR">      0.00000000</i>
   <i name="OFIELD_A">      0.00000000</i>
  </separator>
 </parameters>
 <atominfo>
  <atoms>       6 </atoms>
  <types>       2 </types>
  <array name="atoms" >
   <dimension dim="1">ion</dimension>
   <field type="string">element</field>
   <field type="int">atomtype</field>
   <set>
    <rc><c>Te</c><c>   1</c></rc>
    <rc><c>Te</c><c>   1</c></rc>
    <rc><c>Te</c><c>   1</c></rc>
    <rc><c>Te</c><c>   1</c></rc>
    <rc><c>Mo</c><c>   2</c></rc>
    <rc><c>Mo</c><c>   2</c></rc>
   </set>
  </array>
  <array name="atomtypes" >
   <dimension dim="1">type</dimension>
   <field type="int">atomspertype</field>
   <field type="string">element</field>
   <field>mass</field>
   <field>valence</field>
   <field type="string">pseudopotential</field>
   <set>
    <rc><c>   4</c><c>Te</c><c>    127.60000000</c><c>      6.00000000</c><c>  PAW_PBE Te 08Apr2002                  </c></rc>
    <rc><c>   2</c><c>Mo</c><c>     95.94000000</c><c>      6.00000000</c><c>  PAW_PBE Mo 08Apr2002                  </c></rc>
   </set>
  </array>
 </atominfo>
 <structure name="initialpos" >
  <crystal>
   <varray name="basis" >
    <v>       3.45200000       0.00000000       0.00000000 </v>
    <v>       0.00000000       6.36800000       0.00000000 </v>
    <v>       0.00000000       0.00000000      16.00000000 </v>
   </varray>
   <i name="volume">    351.71737600 </i>
   <varray name="rec_basis" >
    <v>       0.28968714       0.00000000       0.00000000 </v>
    <v>       0.00000000       0.15703518       0.00000000 </v>
    <v>       0.00000000       0.00000000       0.06250000 </v>
   </varray>
  </crystal>
  <varray name="positions" >
   <v>       0.50000000       0.10163317       0.12913313 </v>
   <v>       0.50000000       0.74915672       0.90758437 </v>
   <v>       0.00000000       0.25741049       0.87086563 </v>
   <v>       0.00000000       0.60988065       0.09241625 </v>
   <v>       0.50000000       0.36059673       0.99406750 </v>
   <v>       0.00000000       0.99843907       0.00593312 </v>
  </varray>
 </structure>
 <calculation>
  <scstep>
   <time name="dav">    3.22    3.22</time>
   <time name="total">    3.26    3.27</time>
   <energy>
    <i name="alphaZ">     25.19170377 </i>
    <i name="ewald">   1706.63235767 </i>
    <i name="hartreedc">  -2986.48471468 </i>
    <i name="XCdc">   -233.78894118 </i>
    <i name="pawpsdc">   1362.14282323 </i>
    <i name="pawaedc">  -1065.87210056 </i>
    <i name="eentropy">     -0.04091749 </i>
    <i name="bandstr">     50.12341632 </i>
    <i name="atom">   1328.10454569 </i>
    <i name="e_fr_energy">    186.00817276 </i>
    <i name="e_wo_entrp">    186.04909025 </i>
    <i name="e_0_energy">    186.02863151 </i>
   </energy>
  </scstep>
  <scstep>
   <time name="dav">    3.86    3.86</time>
   <time name="total">    3.91    3.91</time>
   <energy>
    <i name="e_fr_energy">    -18.23012261 </i>
    <i name="e_wo_entrp">    -18.21697759 </i>
    <i name="e_0_energy">    -18.22355010 </i>
   </energy>
  </scstep>
  <scstep>
   <time name="dav">    3.57    3.57</time>
   <time name="total">    3.63    3.63</time>
   <energy>
    <i name="e_fr_energy">    -36.74515229 </i>
    <i name="e_wo_entrp">    -36.73289042 </i>
    <i name="e_0_energy">    -36.73902136 </i>
   </energy>
  </scstep>
  <scstep>
   <time name="dav">    4.13    4.13</time>
   <time name="total">    4.18    4.18</time>
   <energy>
    <i name="e_fr_energy">    -37.41328076 </i>
    <i name="e_wo_entrp">    -37.40096456 </i>
    <i name="e_0_energy">    -37.40712266 </i>
   </energy>
  </scstep>
  <scstep>
   <time name="dav">    3.78    3.78</time>
   <time name="total">    3.95    3.95</time>
   <energy>
    <i name="e_fr_energy">    -37.42363388 </i>
    <i name="e_wo_entrp">    -37.41131007 </i>
    <i name="e_0_energy">    -37.41747197 </i>
   </energy>
  </scstep>
  <scstep>
   <time name="dav">    3.75    3.77</time>
   <time name="total">    3.95    3.96</time>
   <energy>
    <i name="e_fr_energy">    -36.48777765 </i>
    <i name="e_wo_entrp">    -36.46992662 </i>
    <i name="e_0_energy">    -36.47885214 </i>
   </energy>
  </scstep>
  <scstep>
   <time name="dav">    3.48    3.48</time>
   <time name="total">    3.68    3.69</time>
   <energy>
    <i name="e_fr_energy">    -36.51804325 </i>
    <i name="e_wo_entrp">    -36.50222955 </i>
    <i name="e_0_energy">    -36.51013640 </i>
   </energy>
  </scstep>
  <scstep>
   <time name="dav">    3.64    3.64</time>
   <time name="total">    3.84    3.84</time>
   <energy>
    <i name="e_fr_energy">    -36.00614733 </i>
    <i name="e_wo_entrp">    -35.99112928 </i>
    <i name="e_0_energy">    -35.99863830 </i>
   </energy>
  </scstep>
  <scstep>
   <time name="dav">    4.01    4.01</time>
   <time name="total">    4.20    4.20</time>
   <energy>
    <i name="e_fr_energy">    -35.99790226 </i>
    <i name="e_wo_entrp">    -35.98210725 </i>
    <i name="e_0_energy">    -35.99000475 </i>
   </energy>
  </scstep>
  <scstep>
   <time name="dav">    3.55    3.55</time>
   <time name="total">    3.74    3.74</time>
   <energy>
    <i name="e_fr_energy">    -35.99196765 </i>
    <i name="e_wo_entrp">    -35.97649899 </i>
    <i name="e_0_energy">    -35.98423332 </i>
   </energy>
  </scstep>
  <scstep>
   <time name="dav">    3.75    3.75</time>
   <time name="total">    3.95    3.95</time>
   <energy>
    <i name="e_fr_energy">    -35.99073124 </i>
    <i name="e_wo_entrp">    -35.97510248 </i>
    <i name="e_0_energy">    -35.98291686 </i>
   </energy>
  </scstep>
  <scstep>
   <time name="dav">    3.89    3.89</time>
   <time name="total">    4.09    4.09</time>
   <energy>
    <i name="e_fr_energy">    -35.99019793 </i>
    <i name="e_wo_entrp">    -35.97464752 </i>
    <i name="e_0_energy">    -35.98242273 </i>
   </energy>
  </scstep>
  <scstep>
   <time name="dav">    3.91    3.93</time>
   <time name="total">    4.11    4.13</time>
   <energy>
    <i name="e_fr_energy">    -35.99004018 </i>
    <i name="e_wo_entrp">    -35.97451835 </i>
    <i name="e_0_energy">    -35.98227927 </i>
   </energy>
  </scstep>
  <scstep>
   <time name="dav">    3.40    3.40</time>
   <time name="total">    3.59    3.60</time>
   <energy>
    <i name="e_fr_energy">    -35.98982171 </i>
    <i name="e_wo_entrp">    -35.97428630 </i>
    <i name="e_0_energy">    -35.98205401 </i>
   </energy>
  </scstep>
  <scstep>
   <time name="dav">    3.43    3.43</time>
   <time name="total">    3.62    3.62</time>
   <energy>
    <i name="e_fr_energy">    -35.98957038 </i>
    <i name="e_wo_entrp">    -35.97401205 </i>
    <i name="e_0_energy">    -35.98179122 </i>
   </energy>
  </scstep>
  <scstep>
   <time name="dav">    3.92    3.92</time>
   <time name="total">    4.12    4.13</time>
   <energy>
    <i name="e_fr_energy">    -35.98960937 </i>
    <i name="e_wo_entrp">    -35.97404887 </i>
    <i name="e_0_energy">    -35.98182912 </i>
   </energy>
  </scstep>
  <scstep>
   <time name="dav">    3.80    3.80</time>
   <time name="total">    3.99    4.00</time>
   <energy>
    <i name="e_fr_energy">    -35.98976586 </i>
    <i name="e_wo_entrp">    -35.97421329 </i>
    <i name="e_0_energy">    -35.98198957 </i>
   </energy>
  </scstep>
  <scstep>
   <time name="dav">    3.33    3.33</time>
   <time name="total">    3.52    3.53</time>
   <energy>
    <i name="e_fr_energy">    -35.98988547 </i>
    <i name="e_wo_entrp">    -35.97433205 </i>
    <i name="e_0_energy">    -35.98210876 </i>
   </energy>
  </scstep>
  <scstep>
   <time name="dav">    3.31    3.31</time>
   <time name="total">    3.50    3.51</time>
   <energy>
    <i name="e_fr_energy">    -35.98996145 </i>
    <i name="e_wo_entrp">    -35.97440785 </i>
    <i name="e_0_energy">    -35.98218465 </i>
   </energy>
  </scstep>
  <scstep>
   <time name="dav">    3.03    3.02</time>
   <time name="total">    3.22    3.22</time>
   <energy>
    <i name="e_fr_energy">    -35.99001746 </i>
    <i name="e_wo_entrp">    -35.97446312 </i>
    <i name="e_0_energy">    -35.98224029 </i>
   </energy>
  </scstep>
  <scstep>
   <time name="dav">    2.74    2.74</time>
   <time name="total">    2.94    2.94</time>
   <energy>
    <i name="e_fr_energy">    -35.99003156 </i>
    <i name="e_wo_entrp">    -35.97447777 </i>
    <i name="e_0_energy">    -35.98225467 </i>
   </energy>
  </scstep>
  <scstep>
   <time name="dav">    2.81    2.83</time>
   <time name="total">    3.01    3.03</time>
   <energy>
    <i name="e_fr_energy">    -35.99003822 </i>
    <i name="e_wo_entrp">    -35.97448438 </i>
    <i name="e_0_energy">    -35.98226130 </i>
   </energy>
  </scstep>
  <scstep>
   <time name="dav">    2.67    2.67</time>
   <time name="total">    2.86    2.87</time>
   <energy>
    <i name="e_fr_energy">    -35.99003943 </i>
    <i name="e_wo_entrp">    -35.97448511 </i>
    <i name="e_0_energy">    -35.98226227 </i>
   </energy>
  </scstep>
  <scstep>
   <time name="dav">    2.53    2.53</time>
   <time name="total">    2.61    2.61</time>
   <energy>
    <i name="alphaZ">     25.19170377 </i>
    <i name="ewald">   1706.63235767 </i>
    <i name="hartreedc">  -3004.07176202 </i>
    <i name="XCdc">   -232.33294782 </i>
    <i name="pawpsdc">   2699.57487033 </i>
    <i name="pawaedc">  -2406.01877340 </i>
    <i name="eentropy">     -0.01555432 </i>
    <i name="bandstr">   -153.05447944 </i>
    <i name="atom">   1328.10454569 </i>
    <i name="e_fr_energy">    -35.99003953 </i>
    <i name="e_wo_entrp">    -35.97448522 </i>
    <i name="e_0_energy">    -35.98226237 </i>
   </energy>
  </scstep>
  <structure>
   <crystal>
    <varray name="basis" >
     <v>       3.45200000       0.00000000       0.00000000 </v>
     <v>       0.00000000       6.36800000       0.00000000 </v>
     <v>       0.00000000       0.00000000      16.00000000 </v>
    </varray>
    <i name="volume">    351.71737600 </i>
    <varray name="rec_basis" >
     <v>       0.28968714       0.00000000       0.00000000 </v>
     <v>       0.00000000       0.15703518       0.00000000 </v>
     <v>       0.00000000       0.00000000       0.06250000 </v>
    </varray>
   </crystal>
   <varray name="positions" >
    <v>       0.50000000       0.10163317       0.12913313 </v>
    <v>       0.50000000       0.74915672       0.90758437 </v>
    <v>       0.00000000       0.25741049       0.87086563 </v>
    <v>       0.00000000       0.60988065       0.09241625 </v>
    <v>       0.50000000       0.36059673       0.99406750 </v>
    <v>       0.00000000       0.99843907       0.00593312 </v>
   </varray>
  </structure>
  <varray name="forces" >
   <v>       0.00000001      -0.00497591       0.00995748 </v>
   <v>       0.00000000      -0.00053416      -0.00582118 </v>
   <v>       0.00000001       0.00467598      -0.00961578 </v>
   <v>      -0.00000002       0.00055197       0.00587064 </v>
   <v>       0.00000001       0.01784277      -0.00394814 </v>
   <v>      -0.00000002      -0.01756064       0.00355697 </v>
  </varray>
  <varray name="stress" >
   <v>      -1.48075327       0.00000012       0.00000138 </v>
   <v>      -0.00000004      -0.54641226      -0.09303589 </v>
   <v>       0.00000140      -0.09303583      -0.70464544 </v>
  </varray>
  <energy>
   <i name="e_fr_energy">    -35.99003953 </i>
   <i name="e_wo_entrp">    -35.98226237 </i>
   <i name="e_0_energy">     -0.01555432 </i>
  </energy>
  <time name="totalsc">   89.27   89.39</time>
 </calculation>
 <calculation>
  <scstep>
   <time name="dav">    3.11    3.11</time>
   <time name="total">    3.25    3.26</time>
   <energy>
    <i name="alphaZ">     25.19170377 </i>
    <i name="ewald">   1705.99372501 </i>
    <i name="hartreedc">  -3003.46045890 </i>
    <i name="XCdc">   -232.33625743 </i>
    <i name="pawpsdc">   2699.56884404 </i>
    <i name="pawaedc">  -2406.01276554 </i>
    <i name="eentropy">     -0.01559073 </i>
    <i name="bandstr">   -153.02380630 </i>
    <i name="atom">   1328.10454569 </i>
    <i name="e_fr_energy">    -35.99006039 </i>
    <i name="e_wo_entrp">    -35.97446966 </i>
    <i name="e_0_energy">    -35.98226503 </i>
   </energy>
  </scstep>
  <scstep>
   <time name="dav">    3.70    3.70</time>
   <time name="total">    3.89    3.89</time>
   <energy>
    <i name="e_fr_energy">    -35.99006276 </i>
    <i name="e_wo_entrp">    -35.97446606 </i>
    <i name="e_0_energy">    -35.98226441 </i>
   </energy>
  </scstep>
  <scstep>
   <time name="dav">    3.06    3.06</time>
   <time name="total">    3.15    3.15</time>
   <energy>
    <i name="alphaZ">     25.19170377 </i>
    <i name="ewald">   1705.99372501 </i>
    <i name="hartreedc">  -3003.45738404 </i>
    <i name="XCdc">   -232.33608131 </i>
    <i name="pawpsdc">   2698.86931003 </i>
    <i name="pawaedc">  -2405.31170532 </i>
    <i name="eentropy">     -0.01559365 </i>
    <i name="bandstr">   -153.02858197 </i>
    <i name="atom">   1328.10454569 </i>
    <i name="e_fr_energy">    -35.99006177 </i>
    <i name="e_wo_entrp">    -35.97446813 </i>
    <i name="e_0_energy">    -35.98226495 </i>
   </energy>
  </scstep>
  <structure>
   <crystal>
    <varray name="basis" >
     <v>       3.45200000       0.00000000       0.00000000 </v>
     <v>       0.00000000       6.36800000       0.00000000 </v>
     <v>       0.00000000       0.00000000      16.00000000 </v>
    </varray>
    <i name="volume">    351.71737600 </i>
    <varray name="rec_basis" >
     <v>       0.28968714       0.00000000       0.00000000 </v>
     <v>       0.00000000       0.15703518       0.00000000 </v>
     <v>       0.00000000       0.00000000       0.06250000 </v>
    </varray>
   </crystal>
   <varray name="positions" >
    <v>       0.50000000       0.10159547       0.12916315 </v>
    <v>       0.50000000       0.74915267       0.90756682 </v>
    <v>       0.00000000       0.25744591       0.87083663 </v>
    <v>      -0.00000000       0.60988483       0.09243395 </v>
    <v>       0.50000000       0.36073191       0.99405560 </v>
    <v>      -0.00000000       0.99830603       0.00594385 </v>
   </varray>
  </structure>
  <varray name="forces" >
   <v>      -0.00000012      -0.00121106      -0.00037226 </v>
   <v>       0.00000034       0.00127048      -0.00500928 </v>
   <v>       0.00000014       0.00103402       0.00025262 </v>
   <v>      -0.00000014      -0.00120850       0.00494074 </v>
   <v>       0.00000025      -0.00026737       0.00236485 </v>
   <v>      -0.00000047       0.00038242      -0.00217666 </v>
  </varray>
  <varray name="stress" >
   <v>      -1.57788202      -0.00000176       0.00000003 </v>
   <v>      -0.00000168      -0.60953893      -0.03504685 </v>
   <v>       0.00000008      -0.03504681      -0.93452878 </v>
  </varray>
  <energy>
   <i name="e_fr_energy">    -35.99006177 </i>
   <i name="e_wo_entrp">    -35.98226495 </i>
   <i name="e_0_energy">     -0.01559365 </i>
  </energy>
  <time name="totalsc">   11.97   11.98</time>
 </calculation>
 <calculation>
  <scstep>
   <time name="dav">    3.28    3.28</time>
   <time name="total">    3.43    3.44</time>
   <energy>
    <i name="alphaZ">     25.19170377 </i>
    <i name="ewald">   1705.97106538 </i>
    <i name="hartreedc">  -3003.43055121 </i>
    <i name="XCdc">   -232.33598957 </i>
    <i name="pawpsdc">   2698.74304169 </i>
    <i name="pawaedc">  -2405.18484172 </i>
    <i name="eentropy">     -0.01559757 </i>
    <i name="bandstr">   -153.03343763 </i>
    <i name="atom">   1328.10454569 </i>
    <i name="e_fr_energy">    -35.99006117 </i>
    <i name="e_wo_entrp">    -35.97446360 </i>
    <i name="e_0_energy">    -35.98226239 </i>
   </energy>
  </scstep>
  <scstep>
   <time name="dav">    2.62    2.62</time>
   <time name="total">    2.71    2.71</time>
   <energy>
    <i name="alphaZ">     25.19170377 </i>
    <i name="ewald">   1705.97106538 </i>
    <i name="hartreedc">  -3003.43931297 </i>
    <i name="XCdc">   -232.33620604 </i>
    <i name="pawpsdc">   2698.70377517 </i>
    <i name="pawaedc">  -2405.14539436 </i>
    <i name="eentropy">     -0.01559428 </i>
    <i name="bandstr">   -153.02464323 </i>
    <i name="atom">   1328.10454569 </i>
    <i name="e_fr_energy">    -35.99006087 </i>
    <i name="e_wo_entrp">    -35.97446659 </i>
    <i name="e_0_energy">    -35.98226373 </i>
   </energy>
  </scstep>
  <structure>
   <crystal>
    <varray name="basis" >
     <v>       3.45200000       0.00000000       0.00000000 </v>
     <v>       0.00000000       6.36800000       0.00000000 </v>
     <v>       0.00000000       0.00000000      16.00000000 </v>
    </varray>
    <i name="volume">    351.71737600 </i>
    <varray name="rec_basis" >
     <v>       0.28968714       0.00000000       0.00000000 </v>
     <v>       0.00000000       0.15703518       0.00000000 </v>
     <v>       0.00000000       0.00000000       0.06250000 </v>
    </varray>
   </crystal>
   <varray name="positions" >
    <v>       0.50000000       0.10159413       0.12916421 </v>
    <v>       0.50000000       0.74915253       0.90756620 </v>
    <v>       0.00000000       0.25744717       0.87083560 </v>
    <v>      -0.00000000       0.60988498       0.09243458 </v>
    <v>       0.50000000       0.36073670       0.99405517 </v>
    <v>      -0.00000000       0.99830131       0.00594423 </v>
   </varray>
  </structure>
  <varray name="forces" >
   <v>      -0.00000010      -0.00105492      -0.00079139 </v>
   <v>       0.00000006       0.00126090      -0.00483944 </v>
   <v>       0.00000002       0.00091255       0.00069324 </v>
   <v>       0.00000000      -0.00127791       0.00472818 </v>
   <v>       0.00000031      -0.00123054       0.00284952 </v>
   <v>      -0.00000029       0.00138992      -0.00264011 </v>
  </varray>
  <varray name="stress" >
   <v>      -1.57603036      -0.00000026      -0.00000550 </v>
   <v>      -0.00000014      -0.61117396      -0.03032575 </v>
   <v>      -0.00000545      -0.03032583      -0.95111320 </v>
  </varray>
  <energy>
   <i name="e_fr_energy">    -35.99006087 </i>
   <i name="e_wo_entrp">    -35.98226373 </i>
   <i name="e_0_energy">     -0.01559428 </i>
  </energy>
  <time name="totalsc">    7.65    7.66</time>
  <eigenvalues>
   <array>
    <dimension dim="1">band</dimension>
    <dimension dim="2">kpoint</dimension>
    <dimension dim="3">spin</dimension>
    <field>eigene</field>
    <field>occ</field>
    <set>
     <set comment="spin 1">
      <set comment="kpoint 1">
       <r>  -12.4624    1.0000 </r>
       <r>  -11.5620    1.0000 </r>
       <r>  -10.7547    1.0000 </r>
       <r>  -10.4941    1.0000 </r>
       <r>   -5.2407    1.0000 </r>
       <r>   -4.5674    1.0000 </r>
       <r>   -4.3081    1.0000 </r>
       <r>   -3.5540    1.0000 </r>
       <r>   -2.4298    1.0000 </r>
       <r>   -2.0167    1.0000 </r>
       <r>   -1.9590    1.0000 </r>
       <r>   -1.6506    1.0000 </r>
       <r>   -1.3173    1.0000 </r>
       <r>   -0.9540    1.0000 </r>
       <r>   -0.6759    1.0000 </r>
       <r>   -0.2178    1.0000 </r>
       <r>   -0.0004    0.9983 </r>
       <r>    0.5944    0.0307 </r>
       <r>    0.8999    0.0002 </r>
       <r>    1.5187    0.0000 </r>
       <r>    2.0360    0.0000 </r>
       <r>    2.4273    0.0000 </r>
       <r>    2.6216    0.0000 </r>
       <r>    3.5262    0.0000 </r>
      </set>
      <set comment="kpoint 2">
       <r>  -12.3932    1.0000 </r>
       <r>  -11.5152    1.0000 </r>
       <r>  -10.7188    1.0000 </r>
       <r>  -10.4482    1.0000 </r>
       <r>   -5.1685    1.0000 </r>
       <r>   -4.4887    1.0000 </r>
       <r>   -4.2787    1.0000 </r>
       <r>   -3.5225    1.0000 </r>
       <r>   -2.4692    1.0000 </r>
       <r>   -2.1745    1.0000 </r>
       <r>   -2.0528    1.0000 </r>
       <r>   -1.7095    1.0000 </r>
       <r>   -1.3160    1.0000 </r>
       <r>   -0.9130    1.0000 </r>
       <r>   -0.7090    1.0000 </r>
       <r>   -0.3888    1.0000 </r>
       <r>   -0.0055    0.9985 </r>
       <r>    0.4427    0.2812 </r>
       <r>    0.5855    0.0354 </r>
       <r>    1.6643    0.0000 </r>
       <r>    2.1423    0.0000 </r>
       <r>    2.3646    0.0000 </r>
       <r>    2.4350    0.0000 </r>
       <r>    3.1154    0.0000 </r>
      </set>
      <set comment="kpoint 3">
       <r>  -12.2567    1.0000 </r>
       <r>  -11.4236    1.0000 </r>
       <r>  -10.6507    1.0000 </r>
       <r>  -10.3609    1.0000 </r>
       <r>   -5.0299    1.0000 </r>
       <r>   -4.3528    1.0000 </r>
       <r>   -4.2148    1.0000 </r>
       <r>   -3.4726    1.0000 </r>
       <r>   -2.5487    1.0000 </r>
       <r>   -2.4581    1.0000 </r>
       <r>   -2.1214    1.0000 </r>
       <r>   -1.9398    1.0000 </r>
       <r>   -1.3465    1.0000 </r>
       <r>   -1.0272    1.0000 </r>
       <r>   -0.8038    1.0000 </r>
       <r>   -0.5231    1.0000 </r>
       <r>   -0.0135    0.9987 </r>
       <r>    0.0886    0.9928 </r>
       <r>    0.3618    0.5991 </r>
       <r>    1.6343    0.0000 </r>
       <r>    2.1992    0.0000 </r>
       <r>    2.2996    0.0000 </r>
       <r>    2.4100    0.0000 </r>
       <r>    2.5687    0.0000 </r>
      </set>
      <set comment="kpoint 4">
       <r>  -12.0566    1.0000 </r>
       <r>  -11.2919    1.0000 </r>
       <r>  -10.5573    1.0000 </r>
       <r>  -10.2430    1.0000 </r>
       <r>   -4.8387    1.0000 </r>
       <r>   -4.2641    1.0000 </r>
       <r>   -4.0456    1.0000 </r>
       <r>   -3.4309    1.0000 </r>
       <r>   -2.8484    1.0000 </r>
       <r>   -2.6231    1.0000 </r>
       <r>   -2.3073    1.0000 </r>
       <r>   -2.2063    1.0000 </r>
       <r>   -1.3928    1.0000 </r>
       <r>   -1.2279    1.0000 </r>
       <r>   -1.0792    1.0000 </r>
       <r>   -0.7066    1.0000 </r>
       <r>   -0.3300    1.0000 </r>
       <r>    0.0082    0.9981 </r>
       <r>    0.3537    0.6309 </r>
       <r>    1.4600    0.0000 </r>
       <r>    2.1001    0.0000 </r>
       <r>    2.2167    0.0000 </r>
       <r>    2.3915    0.0000 </r>
       <r>    2.4192    0.0000 </r>
      </set>
      <set comment="kpoint 5">
       <r>  -11.7993    1.0000 </r>
       <r>  -11.1274    1.0000 </r>
       <r>  -10.4504    1.0000 </r>
       <r>  -10.1131    1.0000 </r>
       <r>   -4.6232    1.0000 </r>
       <r>   -4.2644    1.0000 </r>
       <r>   -3.7793    1.0000 </r>
       <r>   -3.4767    1.0000 </r>
       <r>   -3.3107    1.0000 </r>
       <r>   -2.6614    1.0000 </r>
       <r>   -2.5181    1.0000 </r>
       <r>   -2.4263    1.0000 </r>
       <r>   -1.7033    1.0000 </r>
       <r>   -1.4166    1.0000 </r>
       <r>   -1.3498    1.0000 </r>
       <r>   -0.9827    1.0000 </r>
       <r>   -0.5419    1.0000 </r>
       <r>   -0.0434    0.9992 </r>
       <r>    0.5007    0.1301 </r>
       <r>    1.3496    0.0000 </r>
       <r>    1.8310    0.0000 </r>
       <r>    2.2413    0.0000 </r>
       <r>    2.3609    0.0000 </r>
       <r>    2.5094    0.0000 </r>
      </set>
      <set comment="kpoint 6">
       <r>  -11.4950    1.0000 </r>
       <r>  -10.9413    1.0000 </r>
       <r>  -10.3458    1.0000 </r>
       <r>   -9.9998    1.0000 </r>
       <r>   -4.4432    1.0000 </r>
       <r>   -4.3169    1.0000 </r>
       <r>   -3.9647    1.0000 </r>
       <r>   -3.4801    1.0000 </r>
       <r>   -3.3314    1.0000 </r>
       <r>   -2.8076    1.0000 </r>
       <r>   -2.6830    1.0000 </r>
       <r>   -2.5970    1.0000 </r>
       <r>   -2.2412    1.0000 </r>
       <r>   -1.5292    1.0000 </r>
       <r>   -1.4064    1.0000 </r>
       <r>   -1.2258    1.0000 </r>
       <r>   -0.6905    1.0000 </r>
       <r>   -0.1785    0.9999 </r>
       <r>    0.7390    0.0029 </r>
       <r>    1.3218    0.0000 </r>
       <r>    1.7321    0.0000 </r>
       <r>    2.2589    0.0000 </r>
       <r>    2.3469    0.0000 </r>
       <r>    2.4659    0.0000 </r>
      </set>
      <set comment="kpoint 7">
       <r>  -11.1600    1.0000 </r>
       <r>  -10.7500    1.0000 </r>
       <r>  -10.2628    1.0000 </r>
       <r>   -9.9418    1.0000 </r>
       <r>   -4.4708    1.0000 </r>
       <r>   -4.3440    1.0000 </r>
       <r>   -4.3113    1.0000 </r>
       <r>   -3.4121    1.0000 </r>
       <r>   -3.2564    1.0000 </r>
       <r>   -3.0923    1.0000 </r>
       <r>   -2.8381    1.0000 </r>
       <r>   -2.7997    1.0000 </r>
       <r>   -2.2252    1.0000 </r>
       <r>   -1.6884    1.0000 </r>
       <r>   -1.4407    1.0000 </r>
       <r>   -1.3258    1.0000 </r>
       <r>   -0.8509    1.0000 </r>
       <r>   -0.3909    1.0000 </r>
       <r>    1.0137    0.0000 </r>
       <r>    1.3702    0.0000 </r>
       <r>    1.7566    0.0000 </r>
       <r>    2.0891    0.0000 </r>
       <r>    2.2794    0.0000 </r>
       <r>    2.4874    0.0000 </r>
      </set>
      <set comment="kpoint 8">
       <r>  -10.8221    1.0000 </r>
       <r>  -10.5774    1.0000 </r>
       <r>  -10.2177    1.0000 </r>
       <r>   -9.9756    1.0000 </r>
       <r>   -4.6389    1.0000 </r>
       <r>   -4.4658    1.0000 </r>
       <r>   -4.3193    1.0000 </r>
       <r>   -3.8439    1.0000 </r>
       <r>   -3.3174    1.0000 </r>
       <r>   -3.2271    1.0000 </r>
       <r>   -2.7513    1.0000 </r>
       <r>   -2.6113    1.0000 </r>
       <r>   -2.0880    1.0000 </r>
       <r>   -1.8725    1.0000 </r>
       <r>   -1.4669    1.0000 </r>
       <r>   -1.3042    1.0000 </r>
       <r>   -1.0045    1.0000 </r>
       <r>   -0.6647    1.0000 </r>
       <r>    1.2737    0.0000 </r>
       <r>    1.4595    0.0000 </r>
       <r>    1.8119    0.0000 </r>
       <r>    1.9101    0.0000 </r>
       <r>    2.1647    0.0000 </r>
       <r>    2.4956    0.0000 </r>
      </set>
      <set comment="kpoint 9">
       <r>  -10.5420    1.0000 </r>
       <r>  -10.4669    1.0000 </r>
       <r>  -10.1980    1.0000 </r>
       <r>  -10.1003    1.0000 </r>
       <r>   -4.6437    1.0000 </r>
       <r>   -4.5354    1.0000 </r>
       <r>   -4.3412    1.0000 </r>
       <r>   -4.2139    1.0000 </r>
       <r>   -3.3807    1.0000 </r>
       <r>   -3.3482    1.0000 </r>
       <r>   -2.4598    1.0000 </r>
       <r>   -2.3353    1.0000 </r>
       <r>   -2.1765    1.0000 </r>
       <r>   -2.0847    1.0000 </r>
       <r>   -1.3339    1.0000 </r>
       <r>   -1.2522    1.0000 </r>
       <r>   -1.0990    1.0000 </r>
       <r>   -0.9616    1.0000 </r>
       <r>    1.4525    0.0000 </r>
       <r>    1.5057    0.0000 </r>
       <r>    1.8062    0.0000 </r>
       <r>    1.8102    0.0000 </r>
       <r>    2.2228    0.0000 </r>
       <r>    2.3814    0.0000 </r>
      </set>
      <set comment="kpoint 10">
       <r>  -10.5420    1.0000 </r>
       <r>  -10.4669    1.0000 </r>
       <r>  -10.1980    1.0000 </r>
       <r>  -10.1003    1.0000 </r>
       <r>   -4.6437    1.0000 </r>
       <r>   -4.5354    1.0000 </r>
       <r>   -4.3412    1.0000 </r>
       <r>   -4.2139    1.0000 </r>
       <r>   -3.3807    1.0000 </r>
       <r>   -3.3482    1.0000 </r>
       <r>   -2.4598    1.0000 </r>
       <r>   -2.3353    1.0000 </r>
       <r>   -2.1765    1.0000 </r>
       <r>   -2.0847    1.0000 </r>
       <r>   -1.3339    1.0000 </r>
       <r>   -1.2522    1.0000 </r>
       <r>   -1.0990    1.0000 </r>
       <r>   -0.9616    1.0000 </r>
       <r>    1.4525    0.0000 </r>
       <r>    1.5057    0.0000 </r>
       <r>    1.8062    0.0000 </r>
       <r>    1.8102    0.0000 </r>
       <r>    2.2228    0.0000 </r>
       <r>    2.3814    0.0000 </r>
      </set>
      <set comment="kpoint 11">
       <r>  -10.8221    1.0000 </r>
       <r>  -10.5774    1.0000 </r>
       <r>  -10.2177    1.0000 </r>
       <r>   -9.9756    1.0000 </r>
       <r>   -4.6389    1.0000 </r>
       <r>   -4.4658    1.0000 </r>
       <r>   -4.3193    1.0000 </r>
       <r>   -3.8439    1.0000 </r>
       <r>   -3.3174    1.0000 </r>
       <r>   -3.2271    1.0000 </r>
       <r>   -2.7513    1.0000 </r>
       <r>   -2.6113    1.0000 </r>
       <r>   -2.0880    1.0000 </r>
       <r>   -1.8725    1.0000 </r>
       <r>   -1.4669    1.0000 </r>
       <r>   -1.3042    1.0000 </r>
       <r>   -1.0045    1.0000 </r>
       <r>   -0.6647    1.0000 </r>
       <r>    1.2737    0.0000 </r>
       <r>    1.4595    0.0000 </r>
       <r>    1.8119    0.0000 </r>
       <r>    1.9101    0.0000 </r>
       <r>    2.1647    0.0000 </r>
       <r>    2.4956    0.0000 </r>
      </set>
      <set comment="kpoint 12">
       <r>  -11.1600    1.0000 </r>
       <r>  -10.7500    1.0000 </r>
       <r>  -10.2628    1.0000 </r>
       <r>   -9.9418    1.0000 </r>
       <r>   -4.4708    1.0000 </r>
       <r>   -4.3440    1.0000 </r>
       <r>   -4.3113    1.0000 </r>
       <r>   -3.4121    1.0000 </r>
       <r>   -3.2564    1.0000 </r>
       <r>   -3.0923    1.0000 </r>
       <r>   -2.8381    1.0000 </r>
       <r>   -2.7997    1.0000 </r>
       <r>   -2.2252    1.0000 </r>
       <r>   -1.6884    1.0000 </r>
       <r>   -1.4407    1.0000 </r>
       <r>   -1.3258    1.0000 </r>
       <r>   -0.8509    1.0000 </r>
       <r>   -0.3909    1.0000 </r>
       <r>    1.0137    0.0000 </r>
       <r>    1.3702    0.0000 </r>
       <r>    1.7566    0.0000 </r>
       <r>    2.0891    0.0000 </r>
       <r>    2.2794    0.0000 </r>
       <r>    2.4874    0.0000 </r>
      </set>
      <set comment="kpoint 13">
       <r>  -11.4950    1.0000 </r>
       <r>  -10.9413    1.0000 </r>
       <r>  -10.3458    1.0000 </r>
       <r>   -9.9998    1.0000 </r>
       <r>   -4.4432    1.0000 </r>
       <r>   -4.3169    1.0000 </r>
       <r>   -3.9647    1.0000 </r>
       <r>   -3.4801    1.0000 </r>
       <r>   -3.3314    1.0000 </r>
       <r>   -2.8076    1.0000 </r>
       <r>   -2.6830    1.0000 </r>
       <r>   -2.5970    1.0000 </r>
       <r>   -2.2412    1.0000 </r>
       <r>   -1.5292    1.0000 </r>
       <r>   -1.4064    1.0000 </r>
       <r>   -1.2258    1.0000 </r>
       <r>   -0.6905    1.0000 </r>
       <r>   -0.1785    0.9999 </r>
       <r>    0.7390    0.0029 </r>
       <r>    1.3218    0.0000 </r>
       <r>    1.7321    0.0000 </r>
       <r>    2.2589    0.0000 </r>
       <r>    2.3469    0.0000 </r>
       <r>    2.4659    0.0000 </r>
      </set>
      <set comment="kpoint 14">
       <r>  -11.7993    1.0000 </r>
       <r>  -11.1274    1.0000 </r>
       <r>  -10.4504    1.0000 </r>
       <r>  -10.1131    1.0000 </r>
       <r>   -4.6232    1.0000 </r>
       <r>   -4.2644    1.0000 </r>
       <r>   -3.7793    1.0000 </r>
       <r>   -3.4767    1.0000 </r>
       <r>   -3.3107    1.0000 </r>
       <r>   -2.6614    1.0000 </r>
       <r>   -2.5181    1.0000 </r>
       <r>   -2.4263    1.0000 </r>
       <r>   -1.7033    1.0000 </r>
       <r>   -1.4166    1.0000 </r>
       <r>   -1.3498    1.0000 </r>
       <r>   -0.9827    1.0000 </r>
       <r>   -0.5419    1.0000 </r>
       <r>   -0.0434    0.9992 </r>
       <r>    0.5007    0.1301 </r>
       <r>    1.3496    0.0000 </r>
       <r>    1.8310    0.0000 </r>
       <r>    2.2413    0.0000 </r>
       <r>    2.3609    0.0000 </r>
       <r>    2.5094    0.0000 </r>
      </set>
      <set comment="kpoint 15">
       <r>  -12.0566    1.0000 </r>
       <r>  -11.2919    1.0000 </r>
       <r>  -10.5573    1.0000 </r>
       <r>  -10.2430    1.0000 </r>
       <r>   -4.8387    1.0000 </r>
       <r>   -4.2641    1.0000 </r>
       <r>   -4.0456    1.0000 </r>
       <r>   -3.4309    1.0000 </r>
       <r>   -2.8484    1.0000 </r>
       <r>   -2.6231    1.0000 </r>
       <r>   -2.3073    1.0000 </r>
       <r>   -2.2063    1.0000 </r>
       <r>   -1.3928    1.0000 </r>
       <r>   -1.2279    1.0000 </r>
       <r>   -1.0792    1.0000 </r>
       <r>   -0.7066    1.0000 </r>
       <r>   -0.3300    1.0000 </r>
       <r>    0.0082    0.9981 </r>
       <r>    0.3537    0.6309 </r>
       <r>    1.4600    0.0000 </r>
       <r>    2.1001    0.0000 </r>
       <r>    2.2167    0.0000 </r>
       <r>    2.3915    0.0000 </r>
       <r>    2.4192    0.0000 </r>
      </set>
      <set comment="kpoint 16">
       <r>  -12.2567    1.0000 </r>
       <r>  -11.4236    1.0000 </r>
       <r>  -10.6507    1.0000 </r>
       <r>  -10.3609    1.0000 </r>
       <r>   -5.0299    1.0000 </r>
       <r>   -4.3528    1.0000 </r>
       <r>   -4.2148    1.0000 </r>
       <r>   -3.4726    1.0000 </r>
       <r>   -2.5487    1.0000 </r>
       <r>   -2.4581    1.0000 </r>
       <r>   -2.1214    1.0000 </r>
       <r>   -1.9398    1.0000 </r>
       <r>   -1.3465    1.0000 </r>
       <r>   -1.0272    1.0000 </r>
       <r>   -0.8038    1.0000 </r>
       <r>   -0.5231    1.0000 </r>
       <r>   -0.0135    0.9987 </r>
       <r>    0.0886    0.9928 </r>
       <r>    0.3618    0.5991 </r>
       <r>    1.6343    0.0000 </r>
       <r>    2.1992    0.0000 </r>
       <r>    2.2996    0.0000 </r>
       <r>    2.4100    0.0000 </r>
       <r>    2.5687    0.0000 </r>
      </set>
      <set comment="kpoint 17">
       <r>  -12.3932    1.0000 </r>
       <r>  -11.5152    1.0000 </r>
       <r>  -10.7188    1.0000 </r>
       <r>  -10.4482    1.0000 </r>
       <r>   -5.1685    1.0000 </r>
       <r>   -4.4887    1.0000 </r>
       <r>   -4.2787    1.0000 </r>
       <r>   -3.5225    1.0000 </r>
       <r>   -2.4692    1.0000 </r>
       <r>   -2.1745    1.0000 </r>
       <r>   -2.0528    1.0000 </r>
       <r>   -1.7095    1.0000 </r>
       <r>   -1.3160    1.0000 </r>
       <r>   -0.9130    1.0000 </r>
       <r>   -0.7090    1.0000 </r>
       <r>   -0.3888    1.0000 </r>
       <r>   -0.0055    0.9985 </r>
       <r>    0.4427    0.2812 </r>
       <r>    0.5855    0.0354 </r>
       <r>    1.6643    0.0000 </r>
       <r>    2.1423    0.0000 </r>
       <r>    2.3646    0.0000 </r>
       <r>    2.4350    0.0000 </r>
       <r>    3.1154    0.0000 </r>
      </set>
      <set comment="kpoint 18">
       <r>  -12.4624    1.0000 </r>
       <r>  -11.5620    1.0000 </r>
       <r>  -10.7547    1.0000 </r>
       <r>  -10.4941    1.0000 </r>
       <r>   -5.2407    1.0000 </r>
       <r>   -4.5674    1.0000 </r>
       <r>   -4.3081    1.0000 </r>
       <r>   -3.5540    1.0000 </r>
       <r>   -2.4298    1.0000 </r>
       <r>   -2.0167    1.0000 </r>
       <r>   -1.9590    1.0000 </r>
       <r>   -1.6506    1.0000 </r>
       <r>   -1.3173    1.0000 </r>
       <r>   -0.9540    1.0000 </r>
       <r>   -0.6759    1.0000 </r>
       <r>   -0.2178    1.0000 </r>
       <r>   -0.0004    0.9983 </r>
       <r>    0.5944    0.0307 </r>
       <r>    0.8999    0.0002 </r>
       <r>    1.5187    0.0000 </r>
       <r>    2.0360    0.0000 </r>
       <r>    2.4273    0.0000 </r>
       <r>    2.6216    0.0000 </r>
       <r>    3.5262    0.0000 </r>
      </set>
      <set comment="kpoint 19">
       <r>  -12.4440    1.0000 </r>
       <r>  -11.5530    1.0000 </r>
       <r>  -10.7958    1.0000 </r>
       <r>  -10.5033    1.0000 </r>
       <r>   -5.2165    1.0000 </r>
       <r>   -4.5165    1.0000 </r>
       <r>   -4.2897    1.0000 </r>
       <r>   -3.5286    1.0000 </r>
       <r>   -2.4797    1.0000 </r>
       <r>   -2.0189    1.0000 </r>
       <r>   -1.9365    1.0000 </r>
       <r>   -1.6507    1.0000 </r>
       <r>   -1.3976    1.0000 </r>
       <r>   -0.8877    1.0000 </r>
       <r>   -0.7040    1.0000 </r>
       <r>   -0.2276    1.0000 </r>
       <r>    0.0029    0.9983 </r>
       <r>    0.5335    0.0799 </r>
       <r>    0.8841    0.0003 </r>
       <r>    1.5154    0.0000 </r>
       <r>    2.0030    0.0000 </r>
       <r>    2.4146    0.0000 </r>
       <r>    2.6545    0.0000 </r>
       <r>    3.4969    0.0000 </r>
      </set>
      <set comment="kpoint 20">
       <r>  -12.3751    1.0000 </r>
       <r>  -11.5063    1.0000 </r>
       <r>  -10.7581    1.0000 </r>
       <r>  -10.4583    1.0000 </r>
       <r>   -5.1429    1.0000 </r>
       <r>   -4.4375    1.0000 </r>
       <r>   -4.2643    1.0000 </r>
       <r>   -3.4959    1.0000 </r>
       <r>   -2.5203    1.0000 </r>
       <r>   -2.1873    1.0000 </r>
       <r>   -2.0284    1.0000 </r>
       <r>   -1.7018    1.0000 </r>
       <r>   -1.3680    1.0000 </r>
       <r>   -0.8917    1.0000 </r>
       <r>   -0.7341    1.0000 </r>
       <r>   -0.3764    1.0000 </r>
       <r>   -0.0213    0.9988 </r>
       <r>    0.3470    0.6562 </r>
       <r>    0.6585    0.0108 </r>
       <r>    1.6078    0.0000 </r>
       <r>    2.0848    0.0000 </r>
       <r>    2.4047    0.0000 </r>
       <r>    2.4537    0.0000 </r>
       <r>    3.1341    0.0000 </r>
      </set>
      <set comment="kpoint 21">
       <r>  -12.2390    1.0000 </r>
       <r>  -11.4149    1.0000 </r>
       <r>  -10.6865    1.0000 </r>
       <r>  -10.3726    1.0000 </r>
       <r>   -5.0018    1.0000 </r>
       <r>   -4.3024    1.0000 </r>
       <r>   -4.2078    1.0000 </r>
       <r>   -3.4465    1.0000 </r>
       <r>   -2.5975    1.0000 </r>
       <r>   -2.4499    1.0000 </r>
       <r>   -2.1506    1.0000 </r>
       <r>   -1.8960    1.0000 </r>
       <r>   -1.3840    1.0000 </r>
       <r>   -1.0474    1.0000 </r>
       <r>   -0.8125    1.0000 </r>
       <r>   -0.5095    1.0000 </r>
       <r>   -0.0544    0.9993 </r>
       <r>    0.0385    0.9969 </r>
       <r>    0.4374    0.2991 </r>
       <r>    1.5926    0.0000 </r>
       <r>    2.0987    0.0000 </r>
       <r>    2.3624    0.0000 </r>
       <r>    2.3970    0.0000 </r>
       <r>    2.6382    0.0000 </r>
      </set>
      <set comment="kpoint 22">
       <r>  -12.0396    1.0000 </r>
       <r>  -11.2835    1.0000 </r>
       <r>  -10.5888    1.0000 </r>
       <r>  -10.2560    1.0000 </r>
       <r>   -4.8078    1.0000 </r>
       <r>   -4.2381    1.0000 </r>
       <r>   -4.0308    1.0000 </r>
       <r>   -3.4122    1.0000 </r>
       <r>   -2.8391    1.0000 </r>
       <r>   -2.6308    1.0000 </r>
       <r>   -2.3950    1.0000 </r>
       <r>   -2.1320    1.0000 </r>
       <r>   -1.4399    1.0000 </r>
       <r>   -1.2997    1.0000 </r>
       <r>   -1.0008    1.0000 </r>
       <r>   -0.7303    1.0000 </r>
       <r>   -0.3259    1.0000 </r>
       <r>   -0.0364    0.9991 </r>
       <r>    0.4023    0.4331 </r>
       <r>    1.4577    0.0000 </r>
       <r>    2.0346    0.0000 </r>
       <r>    2.1606    0.0000 </r>
       <r>    2.4000    0.0000 </r>
       <r>    2.5365    0.0000 </r>
      </set>
      <set comment="kpoint 23">
       <r>  -11.7833    1.0000 </r>
       <r>  -11.1195    1.0000 </r>
       <r>  -10.4769    1.0000 </r>
       <r>  -10.1262    1.0000 </r>
       <r>   -4.5969    1.0000 </r>
       <r>   -4.2489    1.0000 </r>
       <r>   -3.7997    1.0000 </r>
       <r>   -3.4347    1.0000 </r>
       <r>   -3.3001    1.0000 </r>
       <r>   -2.6470    1.0000 </r>
       <r>   -2.5770    1.0000 </r>
       <r>   -2.3935    1.0000 </r>
       <r>   -1.8095    1.0000 </r>
       <r>   -1.4292    1.0000 </r>
       <r>   -1.2438    1.0000 </r>
       <r>   -0.9913    1.0000 </r>
       <r>   -0.5351    1.0000 </r>
       <r>   -0.0978    0.9997 </r>
       <r>    0.5331    0.0804 </r>
       <r>    1.3628    0.0000 </r>
       <r>    1.8164    0.0000 </r>
       <r>    2.1669    0.0000 </r>
       <r>    2.3621    0.0000 </r>
       <r>    2.6222    0.0000 </r>
      </set>
      <set comment="kpoint 24">
       <r>  -11.4805    1.0000 </r>
       <r>  -10.9341    1.0000 </r>
       <r>  -10.3672    1.0000 </r>
       <r>  -10.0109    1.0000 </r>
       <r>   -4.4810    1.0000 </r>
       <r>   -4.2748    1.0000 </r>
       <r>   -3.9487    1.0000 </r>
       <r>   -3.4811    1.0000 </r>
       <r>   -3.3336    1.0000 </r>
       <r>   -2.7912    1.0000 </r>
       <r>   -2.6922    1.0000 </r>
       <r>   -2.6096    1.0000 </r>
       <r>   -2.2583    1.0000 </r>
       <r>   -1.5154    1.0000 </r>
       <r>   -1.3537    1.0000 </r>
       <r>   -1.2218    1.0000 </r>
       <r>   -0.6951    1.0000 </r>
       <r>   -0.2272    1.0000 </r>
       <r>    0.7560    0.0022 </r>
       <r>    1.3417    0.0000 </r>
       <r>    1.7269    0.0000 </r>
       <r>    2.2204    0.0000 </r>
       <r>    2.3216    0.0000 </r>
       <r>    2.5837    0.0000 </r>
      </set>
      <set comment="kpoint 25">
       <r>  -11.1479    1.0000 </r>
       <r>  -10.7439    1.0000 </r>
       <r>  -10.2791    1.0000 </r>
       <r>   -9.9484    1.0000 </r>
       <r>   -4.5992    1.0000 </r>
       <r>   -4.3303    1.0000 </r>
       <r>   -4.1890    1.0000 </r>
       <r>   -3.4961    1.0000 </r>
       <r>   -3.3083    1.0000 </r>
       <r>   -2.9925    1.0000 </r>
       <r>   -2.8263    1.0000 </r>
       <r>   -2.7960    1.0000 </r>
       <r>   -2.2004    1.0000 </r>
       <r>   -1.6723    1.0000 </r>
       <r>   -1.3953    1.0000 </r>
       <r>   -1.3250    1.0000 </r>
       <r>   -0.8647    1.0000 </r>
       <r>   -0.4211    1.0000 </r>
       <r>    1.0156    0.0000 </r>
       <r>    1.3946    0.0000 </r>
       <r>    1.7566    0.0000 </r>
       <r>    2.0891    0.0000 </r>
       <r>    2.3156    0.0000 </r>
       <r>    2.5080    0.0000 </r>
      </set>
      <set comment="kpoint 26">
       <r>  -10.8143    1.0000 </r>
       <r>  -10.5726    1.0000 </r>
       <r>  -10.2286    1.0000 </r>
       <r>   -9.9757    1.0000 </r>
       <r>   -4.7540    1.0000 </r>
       <r>   -4.4106    1.0000 </r>
       <r>   -4.3295    1.0000 </r>
       <r>   -3.8735    1.0000 </r>
       <r>   -3.3612    1.0000 </r>
       <r>   -3.1118    1.0000 </r>
       <r>   -2.7599    1.0000 </r>
       <r>   -2.5881    1.0000 </r>
       <r>   -2.0671    1.0000 </r>
       <r>   -1.8589    1.0000 </r>
       <r>   -1.4153    1.0000 </r>
       <r>   -1.3044    1.0000 </r>
       <r>   -1.0268    1.0000 </r>
       <r>   -0.6686    1.0000 </r>
       <r>    1.2644    0.0000 </r>
       <r>    1.4832    0.0000 </r>
       <r>    1.8212    0.0000 </r>
       <r>    1.9300    0.0000 </r>
       <r>    2.2011    0.0000 </r>
       <r>    2.4908    0.0000 </r>
      </set>
      <set comment="kpoint 27">
       <r>  -10.5416    1.0000 </r>
       <r>  -10.4653    1.0000 </r>
       <r>  -10.1999    1.0000 </r>
       <r>  -10.0946    1.0000 </r>
       <r>   -4.7458    1.0000 </r>
       <r>   -4.5744    1.0000 </r>
       <r>   -4.3515    1.0000 </r>
       <r>   -4.1945    1.0000 </r>
       <r>   -3.3557    1.0000 </r>
       <r>   -3.2691    1.0000 </r>
       <r>   -2.4675    1.0000 </r>
       <r>   -2.3239    1.0000 </r>
       <r>   -2.1560    1.0000 </r>
       <r>   -2.0677    1.0000 </r>
       <r>   -1.3038    1.0000 </r>
       <r>   -1.2375    1.0000 </r>
       <r>   -1.1200    1.0000 </r>
       <r>   -0.9429    1.0000 </r>
       <r>    1.4458    0.0000 </r>
       <r>    1.5166    0.0000 </r>
       <r>    1.8304    0.0000 </r>
       <r>    1.8393    0.0000 </r>
       <r>    2.2348    0.0000 </r>
       <r>    2.3812    0.0000 </r>
      </set>
      <set comment="kpoint 28">
       <r>  -10.5416    1.0000 </r>
       <r>  -10.4653    1.0000 </r>
       <r>  -10.1999    1.0000 </r>
       <r>  -10.0946    1.0000 </r>
       <r>   -4.7458    1.0000 </r>
       <r>   -4.5744    1.0000 </r>
       <r>   -4.3515    1.0000 </r>
       <r>   -4.1945    1.0000 </r>
       <r>   -3.3557    1.0000 </r>
       <r>   -3.2691    1.0000 </r>
       <r>   -2.4675    1.0000 </r>
       <r>   -2.3239    1.0000 </r>
       <r>   -2.1560    1.0000 </r>
       <r>   -2.0677    1.0000 </r>
       <r>   -1.3038    1.0000 </r>
       <r>   -1.2375    1.0000 </r>
       <r>   -1.1200    1.0000 </r>
       <r>   -0.9429    1.0000 </r>
       <r>    1.4458    0.0000 </r>
       <r>    1.5166    0.0000 </r>
       <r>    1.8304    0.0000 </r>
       <r>    1.8393    0.0000 </r>
       <r>    2.2348    0.0000 </r>
       <r>    2.3812    0.0000 </r>
      </set>
      <set comment="kpoint 29">
       <r>  -10.8143    1.0000 </r>
       <r>  -10.5726    1.0000 </r>
       <r>  -10.2286    1.0000 </r>
       <r>   -9.9757    1.0000 </r>
       <r>   -4.7540    1.0000 </r>
       <r>   -4.4106    1.0000 </r>
       <r>   -4.3295    1.0000 </r>
       <r>   -3.8735    1.0000 </r>
       <r>   -3.3612    1.0000 </r>
       <r>   -3.1118    1.0000 </r>
       <r>   -2.7599    1.0000 </r>
       <r>   -2.5881    1.0000 </r>
       <r>   -2.0671    1.0000 </r>
       <r>   -1.8589    1.0000 </r>
       <r>   -1.4153    1.0000 </r>
       <r>   -1.3044    1.0000 </r>
       <r>   -1.0268    1.0000 </r>
       <r>   -0.6686    1.0000 </r>
       <r>    1.2644    0.0000 </r>
       <r>    1.4832    0.0000 </r>
       <r>    1.8212    0.0000 </r>
       <r>    1.9300    0.0000 </r>
       <r>    2.2011    0.0000 </r>
       <r>    2.4908    0.0000 </r>
      </set>
      <set comment="kpoint 30">
       <r>  -11.1479    1.0000 </r>
       <r>  -10.7439    1.0000 </r>
       <r>  -10.2791    1.0000 </r>
       <r>   -9.9484    1.0000 </r>
       <r>   -4.5992    1.0000 </r>
       <r>   -4.3303    1.0000 </r>
       <r>   -4.1890    1.0000 </r>
       <r>   -3.4961    1.0000 </r>
       <r>   -3.3083    1.0000 </r>
       <r>   -2.9925    1.0000 </r>
       <r>   -2.8263    1.0000 </r>
       <r>   -2.7960    1.0000 </r>
       <r>   -2.2004    1.0000 </r>
       <r>   -1.6723    1.0000 </r>
       <r>   -1.3953    1.0000 </r>
       <r>   -1.3250    1.0000 </r>
       <r>   -0.8647    1.0000 </r>
       <r>   -0.4211    1.0000 </r>
       <r>    1.0156    0.0000 </r>
       <r>    1.3946    0.0000 </r>
       <r>    1.7566    0.0000 </r>
       <r>    2.0891    0.0000 </r>
       <r>    2.3156    0.0000 </r>
       <r>    2.5080    0.0000 </r>
      </set>
      <set comment="kpoint 31">
       <r>  -11.4805    1.0000 </r>
       <r>  -10.9341    1.0000 </r>
       <r>  -10.3672    1.0000 </r>
       <r>  -10.0109    1.0000 </r>
       <r>   -4.4810    1.0000 </r>
       <r>   -4.2748    1.0000 </r>
       <r>   -3.9487    1.0000 </r>
       <r>   -3.4811    1.0000 </r>
       <r>   -3.3336    1.0000 </r>
       <r>   -2.7912    1.0000 </r>
       <r>   -2.6922    1.0000 </r>
       <r>   -2.6096    1.0000 </r>
       <r>   -2.2583    1.0000 </r>
       <r>   -1.5154    1.0000 </r>
       <r>   -1.3537    1.0000 </r>
       <r>   -1.2218    1.0000 </r>
       <r>   -0.6951    1.0000 </r>
       <r>   -0.2272    1.0000 </r>
       <r>    0.7560    0.0022 </r>
       <r>    1.3417    0.0000 </r>
       <r>    1.7269    0.0000 </r>
       <r>    2.2204    0.0000 </r>
       <r>    2.3216    0.0000 </r>
       <r>    2.5837    0.0000 </r>
      </set>
      <set comment="kpoint 32">
       <r>  -11.7833    1.0000 </r>
       <r>  -11.1195    1.0000 </r>
       <r>  -10.4769    1.0000 </r>
       <r>  -10.1262    1.0000 </r>
       <r>   -4.5969    1.0000 </r>
       <r>   -4.2489    1.0000 </r>
       <r>   -3.7997    1.0000 </r>
       <r>   -3.4347    1.0000 </r>
       <r>   -3.3001    1.0000 </r>
       <r>   -2.6470    1.0000 </r>
       <r>   -2.5770    1.0000 </r>
       <r>   -2.3935    1.0000 </r>
       <r>   -1.8095    1.0000 </r>
       <r>   -1.4292    1.0000 </r>
       <r>   -1.2438    1.0000 </r>
       <r>   -0.9913    1.0000 </r>
       <r>   -0.5351    1.0000 </r>
       <r>   -0.0978    0.9997 </r>
       <r>    0.5331    0.0804 </r>
       <r>    1.3628    0.0000 </r>
       <r>    1.8164    0.0000 </r>
       <r>    2.1669    0.0000 </r>
       <r>    2.3621    0.0000 </r>
       <r>    2.6222    0.0000 </r>
      </set>
      <set comment="kpoint 33">
       <r>  -12.0396    1.0000 </r>
       <r>  -11.2835    1.0000 </r>
       <r>  -10.5888    1.0000 </r>
       <r>  -10.2560    1.0000 </r>
       <r>   -4.8078    1.0000 </r>
       <r>   -4.2381    1.0000 </r>
       <r>   -4.0308    1.0000 </r>
       <r>   -3.4122    1.0000 </r>
       <r>   -2.8391    1.0000 </r>
       <r>   -2.6308    1.0000 </r>
       <r>   -2.3950    1.0000 </r>
       <r>   -2.1320    1.0000 </r>
       <r>   -1.4399    1.0000 </r>
       <r>   -1.2997    1.0000 </r>
       <r>   -1.0008    1.0000 </r>
       <r>   -0.7303    1.0000 </r>
       <r>   -0.3259    1.0000 </r>
       <r>   -0.0364    0.9991 </r>
       <r>    0.4023    0.4331 </r>
       <r>    1.4577    0.0000 </r>
       <r>    2.0346    0.0000 </r>
       <r>    2.1606    0.0000 </r>
       <r>    2.4000    0.0000 </r>
       <r>    2.5365    0.0000 </r>
      </set>
      <set comment="kpoint 34">
       <r>  -12.2390    1.0000 </r>
       <r>  -11.4149    1.0000 </r>
       <r>  -10.6865    1.0000 </r>
       <r>  -10.3726    1.0000 </r>
       <r>   -5.0018    1.0000 </r>
       <r>   -4.3024    1.0000 </r>
       <r>   -4.2078    1.0000 </r>
       <r>   -3.4465    1.0000 </r>
       <r>   -2.5975    1.0000 </r>
       <r>   -2.4499    1.0000 </r>
       <r>   -2.1506    1.0000 </r>
       <r>   -1.8960    1.0000 </r>
       <r>   -1.3840    1.0000 </r>
       <r>   -1.0474    1.0000 </r>
       <r>   -0.8125    1.0000 </r>
       <r>   -0.5095    1.0000 </r>
       <r>   -0.0544    0.9993 </r>
       <r>    0.0385    0.9969 </r>
       <r>    0.4374    0.2991 </r>
       <r>    1.5926    0.0000 </r>
       <r>    2.0987    0.0000 </r>
       <r>    2.3624    0.0000 </r>
       <r>    2.3970    0.0000 </r>
       <r>    2.6382    0.0000 </r>
      </set>
      <set comment="kpoint 35">
       <r>  -12.3751    1.0000 </r>
       <r>  -11.5063    1.0000 </r>
       <r>  -10.7581    1.0000 </r>
       <r>  -10.4583    1.0000 </r>
       <r>   -5.1429    1.0000 </r>
       <r>   -4.4375    1.0000 </r>
       <r>   -4.2643    1.0000 </r>
       <r>   -3.4959    1.0000 </r>
       <r>   -2.5203    1.0000 </r>
       <r>   -2.1873    1.0000 </r>
       <r>   -2.0284    1.0000 </r>
       <r>   -1.7018    1.0000 </r>
       <r>   -1.3680    1.0000 </r>
       <r>   -0.8917    1.0000 </r>
       <r>   -0.7341    1.0000 </r>
       <r>   -0.3764    1.0000 </r>
       <r>   -0.0213    0.9988 </r>
       <r>    0.3470    0.6562 </r>
       <r>    0.6585    0.0108 </r>
       <r>    1.6078    0.0000 </r>
       <r>    2.0848    0.0000 </r>
       <r>    2.4047    0.0000 </r>
       <r>    2.4537    0.0000 </r>
       <r>    3.1341    0.0000 </r>
      </set>
      <set comment="kpoint 36">
       <r>  -12.4440    1.0000 </r>
       <r>  -11.5530    1.0000 </r>
       <r>  -10.7958    1.0000 </r>
       <r>  -10.5033    1.0000 </r>
       <r>   -5.2165    1.0000 </r>
       <r>   -4.5165    1.0000 </r>
       <r>   -4.2897    1.0000 </r>
       <r>   -3.5286    1.0000 </r>
       <r>   -2.4797    1.0000 </r>
       <r>   -2.0189    1.0000 </r>
       <r>   -1.9365    1.0000 </r>
       <r>   -1.6507    1.0000 </r>
       <r>   -1.3976    1.0000 </r>
       <r>   -0.8877    1.0000 </r>
       <r>   -0.7040    1.0000 </r>
       <r>   -0.2276    1.0000 </r>
       <r>    0.0029    0.9983 </r>
       <r>    0.5335    0.0799 </r>
       <r>    0.8841    0.0003 </r>
       <r>    1.5154    0.0000 </r>
       <r>    2.0030    0.0000 </r>
       <r>    2.4146    0.0000 </r>
       <r>    2.6545    0.0000 </r>
       <r>    3.4969    0.0000 </r>
      </set>
      <set comment="kpoint 37">
       <r>  -12.4076    1.0000 </r>
       <r>  -11.5359    1.0000 </r>
       <r>  -10.8713    1.0000 </r>
       <r>  -10.5239    1.0000 </r>
       <r>   -5.1681    1.0000 </r>
       <r>   -4.4345    1.0000 </r>
       <r>   -4.2377    1.0000 </r>
       <r>   -3.4873    1.0000 </r>
       <r>   -2.5675    1.0000 </r>
       <r>   -2.0163    1.0000 </r>
       <r>   -1.8998    1.0000 </r>
       <r>   -1.6528    1.0000 </r>
       <r>   -1.4963    1.0000 </r>
       <r>   -0.8246    1.0000 </r>
[...]
       <r>    2.6734    0.0000 </r>
      </set>
      <set comment="kpoint 159">
       <r>  -11.5122    1.0000 </r>
       <r>  -11.3543    1.0000 </r>
       <r>  -11.0670    1.0000 </r>
       <r>  -10.5127    1.0000 </r>
       <r>   -4.0410    1.0000 </r>
       <r>   -3.9641    1.0000 </r>
       <r>   -3.6973    1.0000 </r>
       <r>   -3.3837    1.0000 </r>
       <r>   -3.1783    1.0000 </r>
       <r>   -2.7419    1.0000 </r>
       <r>   -2.4433    1.0000 </r>
       <r>   -2.1849    1.0000 </r>
       <r>   -1.3955    1.0000 </r>
       <r>   -1.3038    1.0000 </r>
       <r>   -1.0576    1.0000 </r>
       <r>   -0.9495    1.0000 </r>
       <r>   -0.6747    1.0000 </r>
       <r>   -0.2251    1.0000 </r>
       <r>    0.7203    0.0039 </r>
       <r>    0.9830    0.0001 </r>
       <r>    1.8501    0.0000 </r>
       <r>    1.9155    0.0000 </r>
       <r>    2.4386    0.0000 </r>
       <r>    2.6980    0.0000 </r>
      </set>
      <set comment="kpoint 160">
       <r>  -11.6926    1.0000 </r>
       <r>  -11.5157    1.0000 </r>
       <r>  -11.1785    1.0000 </r>
       <r>  -10.6335    1.0000 </r>
       <r>   -4.2553    1.0000 </r>
       <r>   -4.0728    1.0000 </r>
       <r>   -3.8690    1.0000 </r>
       <r>   -3.0478    1.0000 </r>
       <r>   -2.8509    1.0000 </r>
       <r>   -2.6640    1.0000 </r>
       <r>   -2.2990    1.0000 </r>
       <r>   -1.7597    1.0000 </r>
       <r>   -1.3525    1.0000 </r>
       <r>   -1.1906    1.0000 </r>
       <r>   -0.9815    1.0000 </r>
       <r>   -0.9119    1.0000 </r>
       <r>   -0.5376    1.0000 </r>
       <r>   -0.2144    1.0000 </r>
       <r>    0.8049    0.0010 </r>
       <r>    0.8708    0.0003 </r>
       <r>    1.8265    0.0000 </r>
       <r>    1.9957    0.0000 </r>
       <r>    2.6654    0.0000 </r>
       <r>    2.8779    0.0000 </r>
      </set>
      <set comment="kpoint 161">
       <r>  -11.8168    1.0000 </r>
       <r>  -11.6288    1.0000 </r>
       <r>  -11.2569    1.0000 </r>
       <r>  -10.7193    1.0000 </r>
       <r>   -4.4164    1.0000 </r>
       <r>   -4.1720    1.0000 </r>
       <r>   -3.9863    1.0000 </r>
       <r>   -2.9581    1.0000 </r>
       <r>   -2.7398    1.0000 </r>
       <r>   -2.3203    1.0000 </r>
       <r>   -2.1016    1.0000 </r>
       <r>   -1.5469    1.0000 </r>
       <r>   -1.4768    1.0000 </r>
       <r>   -1.1326    1.0000 </r>
       <r>   -0.9434    1.0000 </r>
       <r>   -0.6946    1.0000 </r>
       <r>   -0.4123    1.0000 </r>
       <r>   -0.2893    1.0000 </r>
       <r>    0.6371    0.0154 </r>
       <r>    1.1576    0.0000 </r>
       <r>    1.7933    0.0000 </r>
       <r>    2.1017    0.0000 </r>
       <r>    2.9483    0.0000 </r>
       <r>    3.1903    0.0000 </r>
      </set>
      <set comment="kpoint 162">
       <r>  -11.8800    1.0000 </r>
       <r>  -11.6869    1.0000 </r>
       <r>  -11.2973    1.0000 </r>
       <r>  -10.7637    1.0000 </r>
       <r>   -4.5008    1.0000 </r>
       <r>   -4.2286    1.0000 </r>
       <r>   -4.0455    1.0000 </r>
       <r>   -3.0061    1.0000 </r>
       <r>   -2.6086    1.0000 </r>
       <r>   -1.9912    1.0000 </r>
       <r>   -1.9248    1.0000 </r>
       <r>   -1.6852    1.0000 </r>
       <r>   -1.6025    1.0000 </r>
       <r>   -1.0382    1.0000 </r>
       <r>   -0.9724    1.0000 </r>
       <r>   -0.5079    1.0000 </r>
       <r>   -0.3900    1.0000 </r>
       <r>   -0.2421    1.0000 </r>
       <r>    0.4494    0.2594 </r>
       <r>    1.4867    0.0000 </r>
       <r>    1.7633    0.0000 </r>
       <r>    2.1440    0.0000 </r>
       <r>    3.1613    0.0000 </r>
       <r>    3.1967    0.0000 </r>
      </set>
     </set>
    </set>
   </array>
  </eigenvalues>
  <separator name="orbital magnetization" >
   <v name="MAGDIPOLOUT">      0.00000000      0.00000000      0.00000000</v>
  </separator>
  <dos>
   <i name="efermi">      0.38605091 </i>
   <total>
    <array>
     <dimension dim="1">gridpoints</dimension>
     <dimension dim="2">spin</dimension>
     <field>energy</field>
     <field>total</field>
     <field>integrated</field>
     <set>
      <set comment="spin 1">
       <r>   -13.2618     0.0000     0.0000 </r>
       <r>   -13.2032     0.0000     0.0000 </r>
       <r>   -13.1446     0.0000     0.0000 </r>
       <r>   -13.0859     0.0000     0.0000 </r>
       <r>   -13.0273     0.0000     0.0000 </r>
       <r>   -12.9687     0.0002     0.0000 </r>
       <r>   -12.9101     0.0005     0.0000 </r>
       <r>   -12.8514     0.0013     0.0001 </r>
       <r>   -12.7928     0.0035     0.0003 </r>
       <r>   -12.7342     0.0093     0.0009 </r>
       <r>   -12.6756     0.0239     0.0023 </r>
       <r>   -12.6169     0.0611     0.0059 </r>
       <r>   -12.5583     0.1471     0.0145 </r>
       <r>   -12.4997     0.3162     0.0330 </r>
       <r>   -12.4411     0.5640     0.0661 </r>
       <r>   -12.3824     0.8095     0.1135 </r>
       <r>   -12.3238     0.9749     0.1707 </r>
       <r>   -12.2652     1.0697     0.2334 </r>
       <r>   -12.2066     1.1211     0.2991 </r>
       <r>   -12.1479     1.1346     0.3656 </r>
       <r>   -12.0893     1.1589     0.4336 </r>
       <r>   -12.0307     1.2095     0.5045 </r>
       <r>   -11.9721     1.2307     0.5767 </r>
       <r>   -11.9134     1.2141     0.6479 </r>
       <r>   -11.8548     1.2158     0.7192 </r>
       <r>   -11.7962     1.2642     0.7933 </r>
       <r>   -11.7376     1.3373     0.8718 </r>
       <r>   -11.6789     1.4519     0.9569 </r>
       <r>   -11.6203     1.7003     1.0566 </r>
       <r>   -11.5617     2.1637     1.1835 </r>
       <r>   -11.5031     2.7352     1.3439 </r>
       <r>   -11.4444     3.1127     1.5264 </r>
       <r>   -11.3858     3.1845     1.7132 </r>
       <r>   -11.3272     3.1630     1.8986 </r>
       <r>   -11.2686     3.2100     2.0869 </r>
       <r>   -11.2099     3.2783     2.2791 </r>
       <r>   -11.1513     3.3274     2.4742 </r>
       <r>   -11.0927     3.3464     2.6704 </r>
       <r>   -11.0341     3.2998     2.8639 </r>
       <r>   -10.9754     3.2516     3.0547 </r>
       <r>   -10.9168     3.3719     3.2525 </r>
       <r>   -10.8582     3.6924     3.4691 </r>
       <r>   -10.7996     4.1756     3.7140 </r>
       <r>   -10.7410     4.7365     3.9918 </r>
       <r>   -10.6823     5.2345     4.2987 </r>
       <r>   -10.6237     5.7027     4.6332 </r>
       <r>   -10.5651     6.2502     4.9997 </r>
       <r>   -10.5065     6.6185     5.3878 </r>
       <r>   -10.4478     6.3284     5.7589 </r>
       <r>   -10.3892     5.4934     6.0811 </r>
       <r>   -10.3306     4.6847     6.3559 </r>
       <r>   -10.2720     4.2114     6.6029 </r>
       <r>   -10.2133     4.0429     6.8401 </r>
       <r>   -10.1547     3.9571     7.0723 </r>
       <r>   -10.0961     3.8638     7.2989 </r>
       <r>   -10.0375     3.7464     7.5189 </r>
       <r>    -9.9788     3.3162     7.7137 </r>
       <r>    -9.9202     2.4109     7.8551 </r>
       <r>    -9.8616     1.3783     7.9361 </r>
       <r>    -9.8030     0.6469     7.9741 </r>
       <r>    -9.7443     0.2683     7.9900 </r>
       <r>    -9.6857     0.1035     7.9962 </r>
       <r>    -9.6271     0.0392     7.9986 </r>
       <r>    -9.5685     0.0132     7.9995 </r>
       <r>    -9.5098     0.0032     7.9999 </r>
       <r>    -9.4512     0.0000     8.0000 </r>
       <r>    -9.3926     0.0000     8.0000 </r>
       <r>    -9.3340     0.0000     8.0000 </r>
       <r>    -9.2753     0.0000     8.0000 </r>
       <r>    -9.2167     0.0000     8.0000 </r>
       <r>    -9.1581     0.0000     8.0000 </r>
       <r>    -9.0995     0.0000     8.0000 </r>
       <r>    -9.0408     0.0000     8.0000 </r>
       <r>    -8.9822     0.0000     8.0000 </r>
       <r>    -8.9236     0.0000     8.0000 </r>
       <r>    -8.8650     0.0000     8.0000 </r>
       <r>    -8.8063     0.0000     8.0000 </r>
       <r>    -8.7477     0.0000     8.0000 </r>
       <r>    -8.6891     0.0000     8.0000 </r>
       <r>    -8.6305     0.0000     8.0000 </r>
       <r>    -8.5718     0.0000     8.0000 </r>
       <r>    -8.5132     0.0000     8.0000 </r>
       <r>    -8.4546     0.0000     8.0000 </r>
       <r>    -8.3960     0.0000     8.0000 </r>
       <r>    -8.3373     0.0000     8.0000 </r>
       <r>    -8.2787     0.0000     8.0000 </r>
       <r>    -8.2201     0.0000     8.0000 </r>
       <r>    -8.1615     0.0000     8.0000 </r>
       <r>    -8.1028     0.0000     8.0000 </r>
       <r>    -8.0442     0.0000     8.0000 </r>
       <r>    -7.9856     0.0000     8.0000 </r>
       <r>    -7.9270     0.0000     8.0000 </r>
       <r>    -7.8683     0.0000     8.0000 </r>
       <r>    -7.8097     0.0000     8.0000 </r>
       <r>    -7.7511     0.0000     8.0000 </r>
       <r>    -7.6925     0.0000     8.0000 </r>
       <r>    -7.6338     0.0000     8.0000 </r>
       <r>    -7.5752     0.0000     8.0000 </r>
       <r>    -7.5166     0.0000     8.0000 </r>
       <r>    -7.4580     0.0000     8.0000 </r>
       <r>    -7.3993     0.0000     8.0000 </r>
       <r>    -7.3407     0.0000     8.0000 </r>
       <r>    -7.2821     0.0000     8.0000 </r>
       <r>    -7.2235     0.0000     8.0000 </r>
       <r>    -7.1648     0.0000     8.0000 </r>
       <r>    -7.1062     0.0000     8.0000 </r>
       <r>    -7.0476     0.0000     8.0000 </r>
       <r>    -6.9890     0.0000     8.0000 </r>
       <r>    -6.9303     0.0000     8.0000 </r>
       <r>    -6.8717     0.0000     8.0000 </r>
       <r>    -6.8131     0.0000     8.0000 </r>
       <r>    -6.7545     0.0000     8.0000 </r>
       <r>    -6.6958     0.0000     8.0000 </r>
       <r>    -6.6372     0.0000     8.0000 </r>
       <r>    -6.5786     0.0000     8.0000 </r>
       <r>    -6.5200     0.0000     8.0000 </r>
       <r>    -6.4613     0.0000     8.0000 </r>
       <r>    -6.4027     0.0000     8.0000 </r>
       <r>    -6.3441     0.0000     8.0000 </r>
       <r>    -6.2855     0.0000     8.0000 </r>
       <r>    -6.2268     0.0000     8.0000 </r>
       <r>    -6.1682     0.0000     8.0000 </r>
       <r>    -6.1096     0.0000     8.0000 </r>
       <r>    -6.0510     0.0000     8.0000 </r>
       <r>    -5.9923     0.0000     8.0000 </r>
       <r>    -5.9337     0.0000     8.0000 </r>
       <r>    -5.8751     0.0002     8.0000 </r>
       <r>    -5.8165     0.0004     8.0000 </r>
       <r>    -5.7578     0.0016     8.0001 </r>
       <r>    -5.6992     0.0039     8.0004 </r>
       <r>    -5.6406     0.0102     8.0010 </r>
       <r>    -5.5820     0.0267     8.0025 </r>
       <r>    -5.5234     0.0677     8.0065 </r>
       <r>    -5.4647     0.1615     8.0160 </r>
       <r>    -5.4061     0.3464     8.0363 </r>
       <r>    -5.3475     0.6374     8.0736 </r>
       <r>    -5.2889     1.0192     8.1334 </r>
       <r>    -5.2302     1.4218     8.2167 </r>
       <r>    -5.1716     1.6954     8.3161 </r>
       <r>    -5.1130     1.7948     8.4213 </r>
       <r>    -5.0544     1.8496     8.5298 </r>
       <r>    -4.9957     1.9915     8.6465 </r>
       <r>    -4.9371     2.2192     8.7766 </r>
       <r>    -4.8785     2.4068     8.9178 </r>
       <r>    -4.8199     2.4385     9.0607 </r>
       <r>    -4.7612     2.3813     9.2004 </r>
       <r>    -4.7026     2.3935     9.3408 </r>
       <r>    -4.6440     2.6115     9.4939 </r>
       <r>    -4.5854     3.1056     9.6760 </r>
       <r>    -4.5267     3.8538     9.9020 </r>
       <r>    -4.4681     4.7798    10.1823 </r>
       <r>    -4.4095     5.7874    10.5217 </r>
       <r>    -4.3509     6.6933    10.9142 </r>
       <r>    -4.2922     7.2621    11.3400 </r>
       <r>    -4.2336     7.3768    11.7725 </r>
       <r>    -4.1750     6.9781    12.1816 </r>
       <r>    -4.1164     6.2492    12.5481 </r>
       <r>    -4.0577     5.5842    12.8756 </r>
       <r>    -3.9991     5.0704    13.1730 </r>
       <r>    -3.9405     4.6118    13.4435 </r>
       <r>    -3.8819     4.2071    13.6904 </r>
       <r>    -3.8232     3.9104    13.9199 </r>
       <r>    -3.7646     3.7455    14.1398 </r>
       <r>    -3.7060     3.5924    14.3507 </r>
       <r>    -3.6474     3.4162    14.5511 </r>
       <r>    -3.5887     3.4830    14.7554 </r>
       <r>    -3.5301     3.9864    14.9893 </r>
       <r>    -3.4715     4.7817    15.2698 </r>
       <r>    -3.4129     5.5099    15.5930 </r>
       <r>    -3.3542     5.7879    15.9324 </r>
       <r>    -3.2956     5.4406    16.2515 </r>
       <r>    -3.2370     4.7323    16.5290 </r>
       <r>    -3.1784     4.1462    16.7722 </r>
       <r>    -3.1197     3.9385    17.0032 </r>
       <r>    -3.0611     4.1885    17.2488 </r>
       <r>    -3.0025     4.7686    17.5285 </r>
       <r>    -2.9439     5.2406    17.8360 </r>
       <r>    -2.8852     5.3875    18.1520 </r>
       <r>    -2.8266     5.5481    18.4775 </r>
       <r>    -2.7680     5.9506    18.8265 </r>
       <r>    -2.7094     6.4489    19.2047 </r>
       <r>    -2.6507     6.8491    19.6063 </r>
       <r>    -2.5921     6.9489    20.0138 </r>
       <r>    -2.5335     6.7938    20.4122 </r>
       <r>    -2.4749     6.6596    20.8029 </r>
       <r>    -2.4162     6.3651    21.1762 </r>
       <r>    -2.3576     5.7391    21.5128 </r>
       <r>    -2.2990     5.2037    21.8181 </r>
       <r>    -2.2404     5.0538    22.1146 </r>
       <r>    -2.1817     5.1272    22.4154 </r>
       <r>    -2.1231     5.1642    22.7184 </r>
       <r>    -2.0645     5.1815    23.0224 </r>
       <r>    -2.0059     5.2642    23.3312 </r>
       <r>    -1.9472     5.3566    23.6455 </r>
       <r>    -1.8886     5.4577    23.9657 </r>
       <r>    -1.8300     5.6875    24.2993 </r>
       <r>    -1.7714     6.0491    24.6540 </r>
       <r>    -1.7127     6.3719    25.0278 </r>
       <r>    -1.6541     6.5174    25.4100 </r>
       <r>    -1.5955     6.4308    25.7872 </r>
       <r>    -1.5369     6.3838    26.1616 </r>
       <r>    -1.4782     6.8433    26.5630 </r>
       <r>    -1.4196     7.8445    27.0230 </r>
       <r>    -1.3610     8.6158    27.5283 </r>
       <r>    -1.3024     8.3517    28.0181 </r>
       <r>    -1.2437     7.2556    28.4436 </r>
       <r>    -1.1851     6.2031    28.8075 </r>
       <r>    -1.1265     5.8665    29.1517 </r>
       <r>    -1.0679     6.3205    29.5224 </r>
       <r>    -1.0092     7.1504    29.9417 </r>
       <r>    -0.9506     7.9032    30.4052 </r>
       <r>    -0.8920     8.1655    30.8844 </r>
       <r>    -0.8334     7.8143    31.3428 </r>
       <r>    -0.7747     7.2758    31.7696 </r>
       <r>    -0.7161     6.8608    32.1720 </r>
       <r>    -0.6575     6.4275    32.5489 </r>
       <r>    -0.5989     5.9654    32.8988 </r>
       <r>    -0.5402     5.6726    33.2316 </r>
       <r>    -0.4816     5.3675    33.5465 </r>
       <r>    -0.4230     4.9822    33.8390 </r>
       <r>    -0.3644     4.7586    34.1182 </r>
       <r>    -0.3058     4.5563    34.3855 </r>
       <r>    -0.2471     4.3101    34.6385 </r>
       <r>    -0.1885     4.0999    34.8791 </r>
       <r>    -0.1299     3.8217    35.1033 </r>
       <r>    -0.0713     3.4632    35.3065 </r>
       <r>    -0.0126     3.0032    35.4828 </r>
       <r>     0.0460     2.3539    35.6209 </r>
       <r>     0.1046     1.6333    35.7168 </r>
       <r>     0.1632     1.0864    35.7807 </r>
       <r>     0.2219     0.8057    35.8280 </r>
       <r>     0.2805     0.7605    35.8728 </r>
       <r>     0.3391     0.9092    35.9262 </r>
       <r>     0.3977     1.1762    35.9953 </r>
       <r>     0.4564     1.4827    36.0823 </r>
       <r>     0.5150     1.7953    36.1876 </r>
       <r>     0.5736     2.1375    36.3130 </r>
       <r>     0.6322     2.5618    36.4632 </r>
       <r>     0.6909     3.0235    36.6405 </r>
       <r>     0.7495     3.2733    36.8324 </r>
       <r>     0.8081     3.0822    37.0131 </r>
       <r>     0.8667     2.6467    37.1683 </r>
       <r>     0.9254     2.2883    37.3025 </r>
       <r>     0.9840     2.1196    37.4268 </r>
       <r>     1.0426     2.1561    37.5533 </r>
       <r>     1.1012     2.2856    37.6873 </r>
       <r>     1.1599     2.5074    37.8345 </r>
       <r>     1.2185     2.9779    38.0092 </r>
       <r>     1.2771     3.6728    38.2246 </r>
       <r>     1.3357     4.4305    38.4844 </r>
       <r>     1.3944     5.1876    38.7886 </r>
       <r>     1.4530     5.7323    39.1247 </r>
       <r>     1.5116     5.6069    39.4535 </r>
       <r>     1.5702     4.6435    39.7259 </r>
       <r>     1.6289     3.6002    39.9369 </r>
       <r>     1.6875     3.4690    40.1404 </r>
       <r>     1.7461     4.4234    40.3998 </r>
       <r>     1.8047     5.7229    40.7355 </r>
       <r>     1.8634     6.4617    41.1145 </r>
       <r>     1.9220     6.5644    41.4995 </r>
       <r>     1.9806     6.5409    41.8832 </r>
       <r>     2.0392     6.7138    42.2770 </r>
       <r>     2.0979     6.9266    42.6831 </r>
       <r>     2.1565     6.7834    43.0809 </r>
       <r>     2.2151     6.3601    43.4538 </r>
       <r>     2.2737     6.1192    43.8128 </r>
       <r>     2.3324     6.3997    44.1883 </r>
       <r>     2.3910     7.1349    44.6067 </r>
       <r>     2.4496     7.6960    45.0582 </r>
       <r>     2.5082     7.4537    45.4954 </r>
       <r>     2.5669     6.4911    45.8761 </r>
       <r>     2.6255     5.5522    46.2019 </r>
       <r>     2.6841     4.9628    46.4931 </r>
       <r>     2.7427     4.4151    46.7520 </r>
       <r>     2.8014     3.7733    46.9734 </r>
       <r>     2.8600     3.1207    47.1566 </r>
       <r>     2.9186     2.4564    47.3009 </r>
       <r>     2.9772     1.7826    47.4058 </r>
       <r>     3.0359     1.2886    47.4815 </r>
       <r>     3.0945     1.1422    47.5485 </r>
       <r>     3.1531     1.2614    47.6227 </r>
       <r>     3.2117     1.3665    47.7030 </r>
       <r>     3.2704     1.2328    47.7754 </r>
       <r>     3.3290     0.9591    47.8317 </r>
       <r>     3.3876     0.7678    47.8769 </r>
       <r>     3.4462     0.6786    47.9167 </r>
       <r>     3.5049     0.5784    47.9506 </r>
       <r>     3.5635     0.4153    47.9750 </r>
       <r>     3.6221     0.2375    47.9890 </r>
       <r>     3.6807     0.1110    47.9955 </r>
       <r>     3.7394     0.0457    47.9983 </r>
       <r>     3.7980     0.0178    47.9994 </r>
       <r>     3.8566     0.0066    47.9998 </r>
       <r>     3.9152     0.0024    47.9999 </r>
       <r>     3.9739     0.0007    48.0000 </r>
       <r>     4.0325     0.0000    48.0000 </r>
       <r>     4.0911     0.0000    48.0000 </r>
       <r>     4.1497     0.0000    48.0000 </r>
       <r>     4.2084     0.0000    48.0000 </r>
       <r>     4.2670     0.0000    48.0000 </r>
       <r>     4.3256     0.0000    48.0000 </r>
      </set>
     </set>
    </array>
   </total>
  </dos>
 </calculation>
 <structure name="finalpos" >
  <crystal>
   <varray name="basis" >
    <v>       3.45200000       0.00000000       0.00000000 </v>
    <v>       0.00000000       6.36800000       0.00000000 </v>
    <v>       0.00000000       0.00000000      16.00000000 </v>
   </varray>
   <i name="volume">    351.71737600 </i>
   <varray name="rec_basis" >
    <v>       0.28968714       0.00000000       0.00000000 </v>
    <v>       0.00000000       0.15703518       0.00000000 </v>
    <v>       0.00000000       0.00000000       0.06250000 </v>
   </varray>
  </crystal>
  <varray name="positions" >
   <v>       0.50000000       0.10159413       0.12916421 </v>
   <v>       0.50000000       0.74915253       0.90756620 </v>
   <v>       0.00000000       0.25744717       0.87083560 </v>
   <v>      -0.00000000       0.60988498       0.09243458 </v>
   <v>       0.50000000       0.36073670       0.99405517 </v>
   <v>      -0.00000000       0.99830131       0.00594423 </v>
  </varray>
 </structure>
</modeling>
