2D MoTe2 in a box                       
           1
     3.452000    0.000000    0.000000
     0.000000    6.368000    0.000000
     0.000000    0.000000   16.000000
   Te   Mo
   4   2
Direct configuration=     1
   0.50000000  0.10163317  0.12913313
   0.50000000  0.74915672  0.90758437
   0.00000000  0.25741049  0.87086563
   0.00000000  0.60988065  0.09241625
   0.50000000  0.36059673  0.99406750
   0.00000000  0.99843907  0.00593312
Direct configuration=     2
   0.50000000  0.10159547  0.12916315
   0.50000000  0.74915267  0.90756682
   0.00000000  0.25744591  0.87083663
  -0.00000000  0.60988483  0.09243395
   0.50000000  0.36073191  0.99405560
  -0.00000000  0.99830603  0.00594385
Direct configuration=     3
   0.50000000  0.10159413  0.12916421
   0.50000000  0.74915253  0.90756620
   0.00000000  0.25744717  0.87083560
  -0.00000000  0.60988498  0.09243458
   0.50000000  0.36073670  0.99405517
  -0.00000000  0.99830131  0.00594423
