   6   6   0   0
  0.5822693E+02  0.3551000E-09  0.6149000E-09  0.1600000E-08  0.5000000E-15
  1.000000000000000E-004
  CAR 
 2D MoTe2 in a box                       
      4.17788511    -13.25809336  301      0.07046690      1.00000000
    -13.258  0.0000E+00  0.0000E+00
    -13.200  0.0000E+00  0.0000E+00
    -13.142  0.0000E+00  0.0000E+00
    -13.084  0.0000E+00  0.0000E+00
    -13.026  0.0000E+00  0.0000E+00
    -12.967  0.0000E+00  0.0000E+00
    -12.909  0.0000E+00  0.0000E+00
    -12.851  0.0000E+00  0.0000E+00
    -12.793  0.0000E+00  0.0000E+00
    -12.735  0.0000E+00  0.0000E+00
    -12.677  0.1743E-06  0.1013E-07
    -12.619  0.1730E-05  0.1107E-06
    -12.561  0.1601E-04  0.1041E-05
    -12.503  0.1303E-03  0.8615E-05
    -12.444  0.5649E-03  0.4145E-04
    -12.386  0.1003E-02  0.9977E-04
    -12.328  0.1060E-02  0.1614E-03
    -12.270  0.1141E-02  0.2277E-03
    -12.212  0.1169E-02  0.2957E-03
    -12.154  0.1036E-02  0.3560E-03
    -12.096  0.1183E-02  0.4247E-03
    -12.038  0.1296E-02  0.5002E-03
    -11.979  0.1121E-02  0.5654E-03
    -11.921  0.1011E-02  0.6242E-03
    -11.863  0.1361E-02  0.7034E-03
    -11.805  0.1353E-02  0.7821E-03
    -11.747  0.1219E-02  0.8530E-03
    -11.689  0.1156E-02  0.9203E-03
    -11.631  0.1165E-02  0.9880E-03
    -11.573  0.2119E-02  0.1111E-02
    -11.514  0.2491E-02  0.1256E-02
    -11.456  0.2744E-02  0.1416E-02
    -11.398  0.2878E-02  0.1583E-02
    -11.340  0.2748E-02  0.1743E-02
    -11.282  0.3479E-02  0.1945E-02
    -11.224  0.3307E-02  0.2138E-02
    -11.166  0.2976E-02  0.2311E-02
    -11.108  0.3350E-02  0.2506E-02
    -11.050  0.3272E-02  0.2696E-02
    -10.991  0.3677E-02  0.2910E-02
    -10.933  0.4045E-02  0.3146E-02
    -10.875  0.3864E-02  0.3370E-02
    -10.817  0.3816E-02  0.3592E-02
    -10.759  0.4092E-02  0.3830E-02
    -10.701  0.5453E-02  0.4148E-02
    -10.643  0.5339E-02  0.4458E-02
    -10.585  0.5840E-02  0.4798E-02
    -10.526  0.6880E-02  0.5198E-02
    -10.468  0.6988E-02  0.5605E-02
    -10.410  0.5679E-02  0.5935E-02
    -10.352  0.5907E-02  0.6279E-02
    -10.294  0.6575E-02  0.6662E-02
    -10.236  0.6206E-02  0.7023E-02
    -10.178  0.5726E-02  0.7356E-02
    -10.120  0.4425E-02  0.7614E-02
    -10.061  0.3436E-02  0.7814E-02
    -10.003  0.2319E-02  0.7949E-02
     -9.945  0.7494E-03  0.7993E-02
     -9.887  0.1059E-03  0.7999E-02
     -9.829  0.8736E-05  0.8000E-02
     -9.771  0.0000E+00  0.8000E-02
     -9.713  0.0000E+00  0.8000E-02
     -9.655  0.0000E+00  0.8000E-02
     -9.597  0.0000E+00  0.8000E-02
     -9.538  0.0000E+00  0.8000E-02
     -9.480  0.0000E+00  0.8000E-02
     -9.422  0.0000E+00  0.8000E-02
     -9.364  0.0000E+00  0.8000E-02
     -9.306  0.0000E+00  0.8000E-02
     -9.248  0.0000E+00  0.8000E-02
     -9.190  0.0000E+00  0.8000E-02
     -9.132  0.0000E+00  0.8000E-02
     -9.073  0.0000E+00  0.8000E-02
     -9.015  0.0000E+00  0.8000E-02
     -8.957  0.0000E+00  0.8000E-02
     -8.899  0.0000E+00  0.8000E-02
     -8.841  0.0000E+00  0.8000E-02
     -8.783  0.0000E+00  0.8000E-02
     -8.725  0.0000E+00  0.8000E-02
     -8.667  0.0000E+00  0.8000E-02
     -8.608  0.0000E+00  0.8000E-02
     -8.550  0.0000E+00  0.8000E-02
     -8.492  0.0000E+00  0.8000E-02
     -8.434  0.0000E+00  0.8000E-02
     -8.376  0.0000E+00  0.8000E-02
     -8.318  0.0000E+00  0.8000E-02
     -8.260  0.0000E+00  0.8000E-02
     -8.202  0.0000E+00  0.8000E-02
     -8.144  0.0000E+00  0.8000E-02
     -8.085  0.0000E+00  0.8000E-02
     -8.027  0.0000E+00  0.8000E-02
     -7.969  0.0000E+00  0.8000E-02
     -7.911  0.0000E+00  0.8000E-02
     -7.853  0.0000E+00  0.8000E-02
     -7.795  0.0000E+00  0.8000E-02
     -7.737  0.0000E+00  0.8000E-02
     -7.679  0.0000E+00  0.8000E-02
     -7.620  0.0000E+00  0.8000E-02
     -7.562  0.0000E+00  0.8000E-02
     -7.504  0.0000E+00  0.8000E-02
     -7.446  0.0000E+00  0.8000E-02
     -7.388  0.0000E+00  0.8000E-02
     -7.330  0.0000E+00  0.8000E-02
     -7.272  0.0000E+00  0.8000E-02
     -7.214  0.0000E+00  0.8000E-02
     -7.156  0.0000E+00  0.8000E-02
     -7.097  0.0000E+00  0.8000E-02
     -7.039  0.0000E+00  0.8000E-02
     -6.981  0.0000E+00  0.8000E-02
     -6.923  0.0000E+00  0.8000E-02
     -6.865  0.0000E+00  0.8000E-02
     -6.807  0.0000E+00  0.8000E-02
     -6.749  0.0000E+00  0.8000E-02
     -6.691  0.0000E+00  0.8000E-02
     -6.632  0.0000E+00  0.8000E-02
     -6.574  0.0000E+00  0.8000E-02
     -6.516  0.0000E+00  0.8000E-02
     -6.458  0.0000E+00  0.8000E-02
     -6.400  0.0000E+00  0.8000E-02
     -6.342  0.0000E+00  0.8000E-02
     -6.284  0.0000E+00  0.8000E-02
     -6.226  0.0000E+00  0.8000E-02
     -6.167  0.0000E+00  0.8000E-02
     -6.109  0.0000E+00  0.8000E-02
     -6.051  0.0000E+00  0.8000E-02
     -5.993  0.0000E+00  0.8000E-02
     -5.935  0.0000E+00  0.8000E-02
     -5.877  0.0000E+00  0.8000E-02
     -5.819  0.0000E+00  0.8000E-02
     -5.761  0.0000E+00  0.8000E-02
     -5.703  0.0000E+00  0.8000E-02
     -5.644  0.0000E+00  0.8000E-02
     -5.586  0.0000E+00  0.8000E-02
     -5.528  0.0000E+00  0.8000E-02
     -5.470  0.3864E-06  0.8000E-02
     -5.412  0.3574E-05  0.8000E-02
     -5.354  0.3303E-04  0.8002E-02
     -5.296  0.2630E-03  0.8017E-02
     -5.238  0.1017E-02  0.8077E-02
     -5.179  0.1472E-02  0.8162E-02
     -5.121  0.1614E-02  0.8256E-02
     -5.063  0.1946E-02  0.8369E-02
     -5.005  0.1810E-02  0.8474E-02
     -4.947  0.1631E-02  0.8569E-02
     -4.889  0.1619E-02  0.8664E-02
     -4.831  0.2838E-02  0.8829E-02
     -4.773  0.2947E-02  0.9000E-02
     -4.714  0.2979E-02  0.9173E-02
     -4.656  0.3001E-02  0.9348E-02
     -4.598  0.3732E-02  0.9565E-02
     -4.540  0.4746E-02  0.9841E-02
     -4.482  0.4488E-02  0.1010E-01
     -4.424  0.5760E-02  0.1044E-01
     -4.366  0.8702E-02  0.1094E-01
     -4.308  0.9242E-02  0.1148E-01
     -4.250  0.7149E-02  0.1190E-01
     -4.191  0.6777E-02  0.1229E-01
     -4.133  0.6091E-02  0.1265E-01
     -4.075  0.6262E-02  0.1301E-01
     -4.017  0.6407E-02  0.1338E-01
     -3.959  0.4040E-02  0.1362E-01
     -3.901  0.2421E-02  0.1376E-01
     -3.843  0.2015E-02  0.1388E-01
     -3.785  0.1076E-02  0.1394E-01
     -3.726  0.1149E-02  0.1401E-01
     -3.668  0.1607E-02  0.1410E-01
     -3.610  0.1625E-02  0.1420E-01
     -3.552  0.1536E-02  0.1428E-01
     -3.494  0.1515E-02  0.1437E-01
     -3.436  0.2210E-02  0.1450E-01
     -3.378  0.3998E-02  0.1473E-01
     -3.320  0.6108E-02  0.1509E-01
     -3.261  0.9412E-02  0.1564E-01
     -3.203  0.1216E-01  0.1634E-01
     -3.145  0.1196E-01  0.1704E-01
     -3.087  0.8471E-02  0.1753E-01
     -3.029  0.4831E-02  0.1781E-01
     -2.971  0.2885E-02  0.1798E-01
     -2.913  0.2556E-02  0.1813E-01
     -2.855  0.3202E-02  0.1832E-01
     -2.797  0.5921E-02  0.1866E-01
     -2.738  0.7423E-02  0.1909E-01
     -2.680  0.7318E-02  0.1952E-01
     -2.622  0.5219E-02  0.1982E-01
     -2.564  0.4949E-02  0.2011E-01
     -2.506  0.5609E-02  0.2044E-01
     -2.448  0.5748E-02  0.2077E-01
     -2.390  0.4611E-02  0.2104E-01
     -2.332  0.5540E-02  0.2136E-01
     -2.273  0.7075E-02  0.2177E-01
     -2.215  0.6532E-02  0.2215E-01
     -2.157  0.6036E-02  0.2251E-01
     -2.099  0.4717E-02  0.2278E-01
     -2.041  0.4512E-02  0.2304E-01
     -1.983  0.4682E-02  0.2332E-01
     -1.925  0.3487E-02  0.2352E-01
     -1.867  0.3331E-02  0.2371E-01
     -1.808  0.3193E-02  0.2390E-01
     -1.750  0.3588E-02  0.2411E-01
     -1.692  0.4598E-02  0.2437E-01
     -1.634  0.4592E-02  0.2464E-01
     -1.576  0.5787E-02  0.2498E-01
     -1.518  0.9033E-02  0.2550E-01
     -1.460  0.1118E-01  0.2615E-01
     -1.402  0.1065E-01  0.2677E-01
     -1.344  0.8849E-02  0.2729E-01
     -1.285  0.7130E-02  0.2770E-01
     -1.227  0.8920E-02  0.2822E-01
     -1.169  0.9060E-02  0.2875E-01
     -1.111  0.7569E-02  0.2919E-01
     -1.053  0.6072E-02  0.2954E-01
     -0.995  0.5805E-02  0.2988E-01
     -0.937  0.5685E-02  0.3021E-01
     -0.879  0.5761E-02  0.3055E-01
     -0.820  0.5022E-02  0.3084E-01
     -0.762  0.5338E-02  0.3115E-01
     -0.704  0.6412E-02  0.3152E-01
     -0.646  0.7257E-02  0.3195E-01
     -0.588  0.7736E-02  0.3240E-01
     -0.530  0.7690E-02  0.3284E-01
     -0.472  0.7225E-02  0.3326E-01
     -0.414  0.7299E-02  0.3369E-01
     -0.355  0.7310E-02  0.3411E-01
     -0.297  0.6226E-02  0.3448E-01
     -0.239  0.6513E-02  0.3486E-01
     -0.181  0.6820E-02  0.3525E-01
     -0.123  0.5377E-02  0.3557E-01
     -0.065  0.3361E-02  0.3576E-01
     -0.007  0.2188E-02  0.3589E-01
      0.051  0.1298E-02  0.3597E-01
      0.109  0.5005E-03  0.3599E-01
      0.168  0.7702E-04  0.3600E-01
      0.226  0.6316E-05  0.3600E-01
      0.284  0.0000E+00  0.3600E-01
      0.342  0.0000E+00  0.3600E-01
      0.400  0.0000E+00  0.3600E-01
      0.458  0.0000E+00  0.3600E-01
      0.516  0.0000E+00  0.3600E-01
      0.574  0.0000E+00  0.3600E-01
      0.633  0.0000E+00  0.3600E-01
      0.691  0.0000E+00  0.3600E-01
      0.749  0.0000E+00  0.3600E-01
      0.807  0.0000E+00  0.3600E-01
      0.865  0.0000E+00  0.3600E-01
      0.923  0.8389E-07  0.3600E-01
      0.981  0.8855E-06  0.3600E-01
      1.039  0.8448E-05  0.3600E-01
      1.098  0.7499E-04  0.3600E-01
      1.156  0.4497E-03  0.3603E-01
      1.214  0.1022E-02  0.3609E-01
      1.272  0.1670E-02  0.3619E-01
      1.330  0.3453E-02  0.3639E-01
      1.388  0.6318E-02  0.3676E-01
      1.446  0.1029E-01  0.3735E-01
      1.504  0.1556E-01  0.3826E-01
      1.562  0.1130E-01  0.3892E-01
      1.621  0.5069E-02  0.3921E-01
      1.679  0.5607E-02  0.3954E-01
      1.737  0.1062E-01  0.4016E-01
      1.795  0.1075E-01  0.4078E-01
      1.853  0.7799E-02  0.4123E-01
      1.911  0.5453E-02  0.4155E-01
      1.969  0.6104E-02  0.4191E-01
      2.027  0.7619E-02  0.4235E-01
      2.086  0.8144E-02  0.4282E-01
      2.144  0.9111E-02  0.4335E-01
      2.202  0.9055E-02  0.4388E-01
      2.260  0.8050E-02  0.4435E-01
      2.318  0.8408E-02  0.4484E-01
      2.376  0.5493E-02  0.4516E-01
      2.434  0.4280E-02  0.4541E-01
      2.492  0.5043E-02  0.4570E-01
      2.551  0.3571E-02  0.4591E-01
      2.609  0.3824E-02  0.4613E-01
      2.667  0.4176E-02  0.4638E-01
      2.725  0.2682E-02  0.4653E-01
      2.783  0.2455E-02  0.4668E-01
      2.841  0.2400E-02  0.4682E-01
      2.899  0.2155E-02  0.4694E-01
      2.957  0.2968E-02  0.4711E-01
      3.015  0.2593E-02  0.4726E-01
      3.074  0.1667E-02  0.4736E-01
      3.132  0.1949E-02  0.4747E-01
      3.190  0.2487E-02  0.4762E-01
      3.248  0.2604E-02  0.4777E-01
      3.306  0.1489E-02  0.4786E-01
      3.364  0.1368E-02  0.4794E-01
      3.422  0.8550E-03  0.4799E-01
      3.480  0.1873E-03  0.4800E-01
      3.539  0.2161E-04  0.4800E-01
      3.597  0.0000E+00  0.4800E-01
      3.655  0.0000E+00  0.4800E-01
      3.713  0.0000E+00  0.4800E-01
      3.771  0.0000E+00  0.4800E-01
      3.829  0.0000E+00  0.4800E-01
      3.887  0.0000E+00  0.4800E-01
      3.945  0.0000E+00  0.4800E-01
      4.004  0.0000E+00  0.4800E-01
      4.062  0.0000E+00  0.4800E-01
      4.120  0.0000E+00  0.4800E-01
      4.178  0.0000E+00  0.4800E-01
