    6    6 1000    1
  0.5822693E+02  0.3551000E-09  0.6149000E-09  0.1600000E-08  0.5000000E-15
  1.000000000000000E-004
  CAR 
 2D MoTe2 in a box                       
     36    162     24
 
  0.2777778E-01  0.2777778E-01  0.1262379E-14  0.6172840E-02
    1      -12.465549
    2      -11.567438
    3      -10.565500
    4      -10.233957
    5       -5.260280
    6       -4.824765
    7       -4.426219
    8       -3.219936
    9       -2.222307
   10       -1.642901
   11       -1.608809
   12       -1.575178
   13       -1.528631
   14       -0.826961
   15       -0.797029
   16       -0.729307
   17       -0.389549
   18       -0.221912
   19        1.452416
   20        1.779889
   21        3.103329
   22        3.166585
   23        3.337433
   24        3.364343
 
  0.8333333E-01  0.2777778E-01  0.1262379E-14  0.6172840E-02
    1      -12.404078
    2      -11.522575
    3      -10.534714
    4      -10.209256
    5       -5.185877
    6       -4.756361
    7       -4.408706
    8       -3.196838
    9       -2.330965
   10       -1.772212
   11       -1.748197
   12       -1.523300
   13       -1.512188
   14       -1.121865
   15       -0.916128
   16       -0.722868
   17       -0.395412
   18       -0.178136
   19        1.478768
   20        1.817278
   21        2.832950
   22        2.971463
   23        3.184677
   24        3.219463
 
  0.1388889E+00  0.2777778E-01  0.1262379E-14  0.6172840E-02
    1      -12.282978
    2      -11.434313
    3      -10.477942
    4      -10.164025
    5       -5.039712
    6       -4.624410
    7       -4.381803
    8       -3.161371
    9       -2.499148
   10       -2.007137
   11       -1.970438
   12       -1.701212
   13       -1.507735
   14       -1.426908
   15       -1.110012
   16       -0.636405
   17       -0.419068
   18       -0.146717
   19        1.461599
   20        1.939277
   21        2.467471
   22        2.489901
   23        2.698884
   24        2.980029
 
  0.1944444E+00  0.2777778E-01  0.1262379E-14  0.6172840E-02
    1      -12.106117
    2      -11.305795
    3      -10.405284
    4      -10.106861
    5       -4.828061
    6       -4.439975
    7       -4.360745
    8       -3.145746
    9       -2.669408
   10       -2.353126
   11       -2.311944
   12       -2.195183
   13       -1.532313
   14       -1.419207
   15       -1.305526
   16       -0.586291
   17       -0.476605
   18       -0.100312
   19        1.376624
   20        2.048153
   21        2.141012
   22        2.172846
   23        2.308058
   24        2.624081
 
  0.2500000E+00  0.2777778E-01  0.1262379E-14  0.6172840E-02
    1      -11.879887
    2      -11.142110
    3      -10.332946
    4      -10.051024
    5       -4.565858
    6       -4.360510
    7       -4.225003
    8       -3.278343
    9       -2.793292
   10       -2.741594
   11       -2.738476
   12       -2.435109
   13       -1.816176
   14       -1.579742
   15       -1.216828
   16       -0.597951
   17       -0.552479
   18       -0.026949
   19        1.258222
   20        1.710346
   21        2.023898
   22        2.061985
   23        2.257008
   24        2.362564
 
  0.3055556E+00  0.2777778E-01  0.1262379E-14  0.6172840E-02
    1      -11.613854
    2      -10.950851
    3      -10.283508
    4      -10.013817
    5       -4.377406
    6       -4.311575
    7       -4.032032
    8       -3.603490
    9       -3.100701
   10       -2.848041
   11       -2.831450
   12       -2.719831
   13       -2.208768
   14       -1.622595
   15       -1.285710
   16       -0.679017
   17       -0.552455
   18        0.043883
   19        1.161849
   20        1.470559
   21        1.954905
   22        1.974283
   23        2.010463
   24        2.525342
 
  0.3611111E+00  0.2777778E-01  0.1262379E-14  0.6172840E-02
    1      -11.322007
    2      -10.742830
    3      -10.283717
    4      -10.014034
    5       -4.377180
    6       -4.311310
    7       -4.006614
    8       -3.603632
    9       -3.271117
   10       -3.098027
   11       -2.847854
   12       -2.831426
   13       -2.481471
   14       -1.622768
   15       -1.545511
   16       -0.822332
   17       -0.462994
   18        0.044023
   19        1.161597
   20        1.331076
   21        1.821537
   22        1.954960
   23        2.074859
   24        2.524963
 
  0.4166667E+00  0.2777778E-01  0.1262379E-14  0.6172840E-02
    1      -11.023853
    2      -10.532379
    3      -10.357360
    4      -10.066603
    5       -4.472185
    6       -4.312306
    7       -4.205825
    8       -3.512051
    9       -3.274753
   10       -3.186920
   11       -2.823126
   12       -2.822807
   13       -2.639009
   14       -1.909959
   15       -1.551455
   16       -1.009883
   17       -0.375675
   18       -0.052729
   19        1.276814
   20        1.354149
   21        1.745419
   22        2.019536
   23        2.143059
   24        2.311660
 
  0.4722222E+00  0.2777778E-01  0.1262379E-14  0.6172840E-02
    1      -10.744951
    2      -10.514451
    3      -10.337280
    4      -10.176707
    5       -4.517594
    6       -4.415385
    7       -4.148666
    8       -3.876747
    9       -3.055511
   10       -3.013451
   11       -2.786853
   12       -2.731715
   13       -2.704493
   14       -2.321308
   15       -1.407559
   16       -1.215661
   17       -0.296254
   18       -0.186450
   19        1.429942
   20        1.487414
   21        1.734536
   22        1.983238
   23        2.102175
   24        2.155262
 
 -0.4722222E+00  0.2777778E-01  0.1262379E-14  0.6172840E-02
    1      -10.744951
    2      -10.514451
    3      -10.337280
    4      -10.176707
    5       -4.517594
    6       -4.415385
    7       -4.148666
    8       -3.876747
    9       -3.055511
   10       -3.013451
   11       -2.786853
   12       -2.731715
   13       -2.704493
   14       -2.321308
   15       -1.407559
   16       -1.215661
   17       -0.296254
   18       -0.186450
   19        1.429942
   20        1.487414
   21        1.734536
   22        1.983238
   23        2.102175
   24        2.155262
 
 -0.4166667E+00  0.2777778E-01  0.1262379E-14  0.6172840E-02
    1      -11.023853
    2      -10.532379
    3      -10.357360
    4      -10.066603
    5       -4.472185
    6       -4.312306
    7       -4.205825
    8       -3.512051
    9       -3.274753
   10       -3.186920
   11       -2.823126
   12       -2.822807
   13       -2.639009
   14       -1.909959
   15       -1.551455
   16       -1.009883
   17       -0.375675
   18       -0.052729
   19        1.276814
   20        1.354149
   21        1.745419
   22        2.019536
   23        2.143059
   24        2.311660
 
 -0.3611111E+00  0.2777778E-01  0.1262379E-14  0.6172840E-02
    1      -11.322007
    2      -10.742830
    3      -10.283717
    4      -10.014034
    5       -4.377180
    6       -4.311310
    7       -4.006614
    8       -3.603632
    9       -3.271117
   10       -3.098027
   11       -2.847854
   12       -2.831426
   13       -2.481471
   14       -1.622768
   15       -1.545511
   16       -0.822332
   17       -0.462994
   18        0.044023
   19        1.161597
   20        1.331076
   21        1.821537
   22        1.954960
   23        2.074859
   24        2.524963
 
 -0.3055556E+00  0.2777778E-01  0.1262379E-14  0.6172840E-02
    1      -11.613854
    2      -10.950851
    3      -10.283508
    4      -10.013817
    5       -4.377406
    6       -4.311575
    7       -4.032032
    8       -3.603490
    9       -3.100701
   10       -2.848041
   11       -2.831450
   12       -2.719831
   13       -2.208768
   14       -1.622595
   15       -1.285710
   16       -0.679017
   17       -0.552455
   18        0.043883
   19        1.161849
   20        1.470559
   21        1.954905
   22        1.974283
   23        2.010463
   24        2.525342
 
 -0.2500000E+00  0.2777778E-01  0.1262379E-14  0.6172840E-02
    1      -11.879887
    2      -11.142110
    3      -10.332946
    4      -10.051024
    5       -4.565858
    6       -4.360510
    7       -4.225003
    8       -3.278343
    9       -2.793292
   10       -2.741594
   11       -2.738476
   12       -2.435109
   13       -1.816176
   14       -1.579742
   15       -1.216828
   16       -0.597951
   17       -0.552479
   18       -0.026949
   19        1.258222
   20        1.710346
   21        2.023898
   22        2.061985
   23        2.257008
   24        2.362564
 
 -0.1944444E+00  0.2777778E-01  0.1262379E-14  0.6172840E-02
    1      -12.106117
    2      -11.305795
    3      -10.405284
    4      -10.106861
    5       -4.828061
    6       -4.439975
    7       -4.360745
    8       -3.145746
    9       -2.669408
   10       -2.353126
   11       -2.311944
   12       -2.195183
   13       -1.532313
   14       -1.419207
   15       -1.305526
   16       -0.586291
   17       -0.476605
   18       -0.100312
   19        1.376624
   20        2.048153
   21        2.141012
   22        2.172846
   23        2.308058
   24        2.624081
 
 -0.1388889E+00  0.2777778E-01  0.1262379E-14  0.6172840E-02
    1      -12.282978
    2      -11.434313
    3      -10.477942
    4      -10.164025
    5       -5.039712
    6       -4.624410
    7       -4.381803
    8       -3.161371
    9       -2.499148
   10       -2.007137
   11       -1.970438
   12       -1.701212
   13       -1.507735
   14       -1.426908
   15       -1.110012
   16       -0.636405
   17       -0.419068
   18       -0.146717
   19        1.461599
   20        1.939277
   21        2.467471
   22        2.489901
   23        2.698884
   24        2.980029
 
 -0.8333333E-01  0.2777778E-01  0.1262379E-14  0.6172840E-02
    1      -12.404078
    2      -11.522575
    3      -10.534714
    4      -10.209256
    5       -5.185877
    6       -4.756361
    7       -4.408706
    8       -3.196838
    9       -2.330965
   10       -1.772212
   11       -1.748197
   12       -1.523300
   13       -1.512188
   14       -1.121865
   15       -0.916128
   16       -0.722868
   17       -0.395412
   18       -0.178136
   19        1.478768
   20        1.817278
   21        2.832950
   22        2.971463
   23        3.216163
   24        3.244053
 
 -0.2777778E-01  0.2777778E-01  0.1262379E-14  0.6172840E-02
    1      -12.465549
    2      -11.567438
    3      -10.565500
    4      -10.233957
    5       -5.260280
    6       -4.824765
    7       -4.426219
    8       -3.219936
    9       -2.222307
   10       -1.642901
   11       -1.608809
   12       -1.575178
   13       -1.528631
   14       -0.826961
   15       -0.797029
   16       -0.729307
   17       -0.389549
   18       -0.221912
   19        1.452416
   20        1.779889
   21        3.103329
   22        3.166585
   23        3.337536
   24        3.374235
 
  0.2777778E-01  0.8333333E-01  0.1262379E-14  0.6172840E-02
    1      -12.444981
    2      -11.552416
    3      -10.610479
    4      -10.263100
    5       -5.192393
    6       -4.801774
    7       -4.369323
    8       -3.227440
    9       -2.207366
   10       -1.689325
   11       -1.654885
   12       -1.558865
   13       -1.518423
   14       -0.857725
   15       -0.767159
   16       -0.759567
   17       -0.390981
   18       -0.245779
   19        1.469709
   20        1.752323
   21        3.005177
   22        3.183763
   23        3.201337
   24        3.311083
 
  0.8333333E-01  0.8333333E-01  0.1262379E-14  0.6172840E-02
    1      -12.383711
    2      -11.507713
    3      -10.578475
    4      -10.237787
    5       -5.121399
    6       -4.733907
    7       -4.352736
    8       -3.202092
    9       -2.324573
   10       -1.810874
   11       -1.793543
   12       -1.506055
   13       -1.492279
   14       -1.140144
   15       -0.936910
   16       -0.713534
   17       -0.398320
   18       -0.201708
   19        1.490790
   20        1.781308
   21        2.759798
   22        2.868420
   23        3.128903
   24        3.212802
 
  0.1388889E+00  0.8333333E-01  0.1262379E-14  0.6172840E-02
    1      -12.263034
    2      -11.419805
    3      -10.519203
    4      -10.191264
    5       -4.983262
    6       -4.603233
    7       -4.328424
    8       -3.160763
    9       -2.500898
   10       -2.051869
   11       -2.006903
   12       -1.706415
   13       -1.478279
   14       -1.407477
   15       -1.104898
   16       -0.663194
   17       -0.425259
   18       -0.172218
   19        1.479849
   20        1.884406
   21        2.413394
   22        2.433331
   23        2.675798
   24        2.966776
 
  0.1944444E+00  0.8333333E-01  0.1262379E-14  0.6172840E-02
    1      -12.086880
    2      -11.291872
    3      -10.442637
    4      -10.131970
    5       -4.787804
    6       -4.421300
    7       -4.313159
    8       -3.129790
    9       -2.674131
   10       -2.398115
   11       -2.309518
   12       -2.239287
   13       -1.498631
   14       -1.386607
   15       -1.280962
   16       -0.645070
   17       -0.488140
   18       -0.130518
   19        1.405370
   20        1.996600
   21        2.069799
   22        2.181874
   23        2.300614
   24        2.633002
 
  0.2500000E+00  0.8333333E-01  0.1262379E-14  0.6172840E-02
    1      -11.861700
    2      -11.129078
    3      -10.364860
    4      -10.073014
    5       -4.560226
    6       -4.323572
    7       -4.211354
    8       -3.215832
    9       -2.794418
   10       -2.787401
   11       -2.745539
   12       -2.497409
   13       -1.757057
   14       -1.548020
   15       -1.181548
   16       -0.672559
   17       -0.570257
   18       -0.062520
   19        1.296823
   20        1.686660
   21        2.068951
   22        2.069527
   23        2.274698
   24        2.282282
 
  0.3055556E+00  0.8333333E-01  0.1262379E-14  0.6172840E-02
    1      -11.597224
    2      -10.939155
    3      -10.308435
    4      -10.031616
    5       -4.383806
    6       -4.355462
    7       -4.030901
    8       -3.470217
    9       -3.143706
   10       -2.840221
   11       -2.832647
   12       -2.802282
   13       -2.127326
   14       -1.597774
   15       -1.237371
   16       -0.751608
   17       -0.568478
   18        0.007247
   19        1.204995
   20        1.475608
   21        1.976565
   22        1.983895
   23        2.078495
   24        2.447957
 
  0.3611111E+00  0.8333333E-01  0.1262379E-14  0.6172840E-02
    1      -11.307641
    2      -10.733079
    3      -10.300422
    4      -10.026694
    5       -4.424865
    6       -4.371779
    7       -4.036072
    8       -3.456573
    9       -3.297561
   10       -3.175336
   11       -2.829149
   12       -2.809479
   13       -2.404032
   14       -1.607986
   15       -1.479070
   16       -0.881374
   17       -0.469065
   18        0.017742
   19        1.196852
   20        1.350506
   21        1.820387
   22        1.991020
   23        2.152368
   24        2.467720
 
  0.4166667E+00  0.8333333E-01  0.1262379E-14  0.6172840E-02
    1      -11.012803
    2      -10.525377
    3      -10.365436
    4      -10.073614
    5       -4.559811
    6       -4.323001
    7       -4.258202
    8       -3.570478
    9       -3.216117
   10       -3.209736
   11       -2.793850
   12       -2.745298
   13       -2.578019
   14       -1.814266
   15       -1.548486
   16       -1.051394
   17       -0.373093
   18       -0.062159
   19        1.296243
   20        1.369049
   21        1.741541
   22        2.069172
   23        2.221543
   24        2.281423
 
  0.4722222E+00  0.8333333E-01  0.1262379E-14  0.6172840E-02
    1      -10.738631
    2      -10.514569
    3      -10.334023
    4      -10.178201
    5       -4.590389
    6       -4.478682
    7       -4.174637
    8       -3.918084
    9       -3.093487
   10       -3.063066
   11       -2.748644
   12       -2.683701
   13       -2.541118
   14       -2.188464
   15       -1.417520
   16       -1.240316
   17       -0.290418
   18       -0.184320
   19        1.437384
   20        1.492320
   21        1.732122
   22        1.972053
   23        2.164452
   24        2.228013
 
 -0.4722222E+00  0.8333333E-01  0.1262379E-14  0.6172840E-02
    1      -10.738631
    2      -10.514569
    3      -10.334023
    4      -10.178201
    5       -4.590389
    6       -4.478682
    7       -4.174637
    8       -3.918084
    9       -3.093487
   10       -3.063066
   11       -2.748644
   12       -2.683701
   13       -2.541118
   14       -2.188464
   15       -1.417520
   16       -1.240316
   17       -0.290418
   18       -0.184320
   19        1.437384
   20        1.492320
   21        1.732122
   22        1.972053
   23        2.164452
   24        2.228013
 
 -0.4166667E+00  0.8333333E-01  0.1262379E-14  0.6172840E-02
    1      -11.012803
    2      -10.525377
    3      -10.365436
    4      -10.073614
    5       -4.559811
    6       -4.323001
    7       -4.258202
    8       -3.570478
    9       -3.216117
   10       -3.209736
   11       -2.793850
   12       -2.745298
   13       -2.578019
   14       -1.814266
   15       -1.548486
   16       -1.051394
   17       -0.373093
   18       -0.062159
   19        1.296243
   20        1.369049
   21        1.741541
   22        2.069172
   23        2.221543
   24        2.281423
 
 -0.3611111E+00  0.8333333E-01  0.1262379E-14  0.6172840E-02
    1      -11.307641
    2      -10.733079
    3      -10.300422
    4      -10.026694
    5       -4.424865
    6       -4.371779
    7       -4.036072
    8       -3.456573
    9       -3.297561
   10       -3.175336
   11       -2.829149
   12       -2.809479
   13       -2.404032
   14       -1.607986
   15       -1.479070
   16       -0.881374
   17       -0.469065
   18        0.017742
   19        1.196852
   20        1.350506
   21        1.820387
   22        1.991020
   23        2.152368
   24        2.467720
 
 -0.3055556E+00  0.8333333E-01  0.1262379E-14  0.6172840E-02
    1      -11.597224
    2      -10.939155
    3      -10.308435
    4      -10.031616
    5       -4.383806
    6       -4.355462
    7       -4.030901
    8       -3.470217
    9       -3.143706
   10       -2.840221
   11       -2.832647
   12       -2.802282
   13       -2.127326
   14       -1.597774
   15       -1.237371
   16       -0.751608
   17       -0.568478
   18        0.007247
   19        1.204995
   20        1.475608
   21        1.976565
   22        1.983895
   23        2.078495
   24        2.447957
 
 -0.2500000E+00  0.8333333E-01  0.1262379E-14  0.6172840E-02
    1      -11.861700
    2      -11.129078
    3      -10.364860
    4      -10.073014
    5       -4.560226
    6       -4.323572
    7       -4.211354
    8       -3.215832
    9       -2.794418
   10       -2.787401
   11       -2.745539
   12       -2.497409
   13       -1.757057
   14       -1.548020
   15       -1.181548
   16       -0.672559
   17       -0.570257
   18       -0.062520
   19        1.296823
   20        1.686660
   21        2.068951
   22        2.069527
   23        2.274698
   24        2.282282
 
 -0.1944444E+00  0.8333333E-01  0.1262379E-14  0.6172840E-02
    1      -12.086880
    2      -11.291872
    3      -10.442637
    4      -10.131970
    5       -4.787804
    6       -4.421300
    7       -4.313159
    8       -3.129790
    9       -2.674131
   10       -2.398115
   11       -2.309518
   12       -2.239287
   13       -1.498631
   14       -1.386607
   15       -1.280962
   16       -0.645070
   17       -0.488140
   18       -0.130518
   19        1.405370
   20        1.996600
   21        2.069799
   22        2.181874
   23        2.300614
   24        2.633002
 
 -0.1388889E+00  0.8333333E-01  0.1262379E-14  0.6172840E-02
    1      -12.263034
    2      -11.419805
    3      -10.519203
    4      -10.191264
    5       -4.983262
    6       -4.603233
    7       -4.328424
    8       -3.160763
    9       -2.500898
   10       -2.051869
   11       -2.006903
   12       -1.706415
   13       -1.478279
   14       -1.407477
   15       -1.104898
   16       -0.663194
   17       -0.425259
   18       -0.172218
   19        1.479849
   20        1.884406
   21        2.413394
   22        2.433331
   23        2.675798
   24        2.966776
 
 -0.8333333E-01  0.8333333E-01  0.1262379E-14  0.6172840E-02
    1      -12.383711
    2      -11.507713
    3      -10.578475
    4      -10.237787
    5       -5.121399
    6       -4.733907
    7       -4.352736
    8       -3.202092
    9       -2.324573
   10       -1.810874
   11       -1.793543
   12       -1.506055
   13       -1.492279
   14       -1.140144
   15       -0.936910
   16       -0.713534
   17       -0.398320
   18       -0.201708
   19        1.490790
   20        1.781308
   21        2.759798
   22        2.868420
   23        3.128971
   24        3.225220
 
 -0.2777778E-01  0.8333333E-01  0.1262379E-14  0.6172840E-02
    1      -12.444981
    2      -11.552416
    3      -10.610479
    4      -10.263100
    5       -5.192393
    6       -4.801774
    7       -4.369323
    8       -3.227440
    9       -2.207366
   10       -1.689325
   11       -1.654885
   12       -1.558865
   13       -1.518423
   14       -0.857725
   15       -0.767159
   16       -0.759567
   17       -0.390981
   18       -0.245779
   19        1.469709
   20        1.752323
   21        3.005177
   22        3.183763
   23        3.201337
   24        3.309529
 
  0.2777778E-01  0.1388889E+00  0.1262379E-14  0.6172840E-02
    1      -12.404038
    2      -11.522532
    3      -10.696055
    4      -10.319073
    5       -5.062329
    6       -4.756326
    7       -4.258781
    8       -3.244330
    9       -2.177718
   10       -1.771991
   11       -1.746664
   12       -1.524945
   13       -1.497380
   14       -0.917288
   15       -0.811082
   16       -0.721919
   17       -0.395337
   18       -0.291704
   19        1.503501
   20        1.707140
   21        2.833776
   22        2.973139
   23        3.217304
   24        3.235873
 
  0.8333333E-01  0.1388889E+00  0.1262379E-14  0.6172840E-02
    1      -12.343184
    2      -11.478154
    3      -10.661849
    4      -10.292611
    5       -4.997956
    6       -4.689544
    7       -4.243845
    8       -3.214836
    9       -2.311445
   10       -1.880987
   11       -1.880066
   12       -1.473632
   13       -1.452695
   14       -1.171450
   15       -1.000973
   16       -0.681446
   17       -0.405432
   18       -0.244065
   19        1.506859
   20        1.728643
   21        2.629125
   22        2.698004
   23        3.032175
   24        3.120702
 
  0.1388889E+00  0.1388889E+00  0.1262379E-14  0.6172840E-02
    1      -12.223357
    2      -11.390951
    3      -10.598031
    4      -10.243652
    5       -4.875470
    6       -4.561422
    7       -4.224330
    8       -3.162877
    9       -2.502734
   10       -2.136307
   11       -2.070692
   12       -1.712709
   13       -1.421334
   14       -1.372819
   15       -1.129169
   16       -0.689053
   17       -0.438355
   18       -0.215629
   19        1.504830
   20        1.798674
   21        2.289854
   22        2.368200
   23        2.629372
   24        2.911623
 
  0.1944444E+00  0.1388889E+00  0.1262379E-14  0.6172840E-02
    1      -12.048620
    2      -11.264189
    3      -10.514311
    4      -10.180374
    5       -4.711268
    6       -4.384555
    7       -4.220357
    8       -3.105447
    9       -2.681059
   10       -2.481730
   11       -2.313436
   12       -2.297723
   13       -1.434586
   14       -1.350139
   15       -1.237819
   16       -0.739849
   17       -0.510866
   18       -0.180919
   19        1.451151
   20        1.915307
   21        1.951395
   22        2.191285
   23        2.285131
   24        2.621809
 
  0.2500000E+00  0.1388889E+00  0.1262379E-14  0.6172840E-02
    1      -11.825557
    2      -11.103194
    3      -10.426482
    4      -10.115567
    5       -4.545766
    6       -4.251865
    7       -4.185072
    8       -3.108523
    9       -2.870808
   10       -2.793948
   11       -2.749165
   12       -2.594861
   13       -1.672567
   14       -1.488278
   15       -1.117947
   16       -0.802010
   17       -0.605228
   18       -0.121297
   19        1.360643
   20        1.650038
   21        2.082513
   22        2.143005
   23        2.145517
   24        2.290092
 
  0.3055556E+00  0.1388889E+00  0.1262379E-14  0.6172840E-02
    1      -11.564220
    2      -10.915957
    3      -10.356985
    4      -10.066228
    5       -4.472902
    6       -4.312824
    7       -4.031806
    8       -3.274329
    9       -3.216795
   10       -2.921420
   11       -2.822987
   12       -2.822972
   13       -2.013771
   14       -1.551148
   15       -1.150064
   16       -0.879208
   17       -0.600406
   18       -0.053183
   19        1.277388
   20        1.484919
   21        1.995970
   22        2.019464
   23        2.193965
   24        2.312393
 
  0.3611111E+00  0.1388889E+00  0.1262379E-14  0.6172840E-02
    1      -11.279210
    2      -10.713771
    3      -10.333356
    4      -10.051465
    5       -4.565914
    6       -4.360222
    7       -4.096811
    8       -3.334250
    9       -3.291825
   10       -3.278314
   11       -2.792722
   12       -2.738062
   13       -2.289545
   14       -1.580073
   15       -1.361775
   16       -0.986198
   17       -0.481147
   18       -0.026922
   19        1.257976
   20        1.386656
   21        1.816228
   22        2.062190
   23        2.289885
   24        2.362082
 
  0.4166667E+00  0.1388889E+00  0.1262379E-14  0.6172840E-02
    1      -10.991036
    2      -10.511576
    3      -10.381644
    4      -10.087430
    5       -4.691426
    6       -4.354561
    7       -4.340858
    8       -3.666076
    9       -3.239711
   10       -3.164849
   11       -2.740115
   12       -2.568806
   13       -2.478987
   14       -1.648716
   15       -1.542324
   16       -1.125879
   17       -0.368775
   18       -0.078994
   19        1.331496
   20        1.397680
   21        1.733190
   22        2.166661
   23        2.222814
   24        2.366856
 
  0.4722222E+00  0.1388889E+00  0.1262379E-14  0.6172840E-02
    1      -10.726369
    2      -10.515130
    3      -10.327659
    4      -10.181241
    5       -4.710909
    6       -4.589501
    7       -4.219703
    8       -3.988840
    9       -3.138326
   10       -3.105895
   11       -2.680103
   12       -2.600819
   13       -2.297267
   14       -1.971277
   15       -1.435224
   16       -1.284783
   17       -0.279685
   18       -0.180387
   19        1.450604
   20        1.500643
   21        1.728131
   22        1.950355
   23        2.285617
   24        2.367162
 
 -0.4722222E+00  0.1388889E+00  0.1262379E-14  0.6172840E-02
    1      -10.726369
    2      -10.515130
    3      -10.327659
    4      -10.181241
    5       -4.710909
    6       -4.589501
    7       -4.219703
    8       -3.988840
    9       -3.138326
   10       -3.105895
   11       -2.680103
   12       -2.600819
   13       -2.297267
   14       -1.971277
   15       -1.435224
   16       -1.284783
   17       -0.279685
   18       -0.180387
   19        1.450604
   20        1.500643
   21        1.728131
   22        1.950355
   23        2.285617
   24        2.367162
 
 -0.4166667E+00  0.1388889E+00  0.1262379E-14  0.6172840E-02
    1      -10.991036
    2      -10.511576
    3      -10.381644
    4      -10.087430
    5       -4.691426
    6       -4.354561
    7       -4.340858
    8       -3.666076
    9       -3.239711
   10       -3.164849
   11       -2.740115
   12       -2.568806
   13       -2.478987
   14       -1.648716
   15       -1.542324
   16       -1.125878
   17       -0.368775
   18       -0.078994
   19        1.331496
   20        1.397680
   21        1.733190
   22        2.166661
   23        2.222814
   24        2.366856
 
 -0.3611111E+00  0.1388889E+00  0.1262379E-14  0.6172840E-02
    1      -11.279210
    2      -10.713771
    3      -10.333356
    4      -10.051465
    5       -4.565914
    6       -4.360222
    7       -4.096811
    8       -3.334250
    9       -3.291825
   10       -3.278314
   11       -2.792722
   12       -2.738062
   13       -2.289545
   14       -1.580073
   15       -1.361775
   16       -0.986198
   17       -0.481147
   18       -0.026922
   19        1.257976
   20        1.386656
   21        1.816228
   22        2.062190
   23        2.289885
   24        2.362082
 
 -0.3055556E+00  0.1388889E+00  0.1262379E-14  0.6172840E-02
    1      -11.564220
    2      -10.915957
    3      -10.356985
    4      -10.066228
    5       -4.472902
    6       -4.312824
    7       -4.031806
    8       -3.274329
    9       -3.216795
   10       -2.921420
   11       -2.822987
   12       -2.822972
   13       -2.013771
   14       -1.551148
   15       -1.150064
   16       -0.879208
   17       -0.600406
   18       -0.053183
   19        1.277388
   20        1.484919
   21        1.995970
   22        2.019464
   23        2.193965
   24        2.312393
 
 -0.2500000E+00  0.1388889E+00  0.1262379E-14  0.6172840E-02
    1      -11.825557
    2      -11.103194
    3      -10.426482
    4      -10.115567
    5       -4.545766
    6       -4.251865
    7       -4.185072
    8       -3.108523
    9       -2.870808
   10       -2.793948
   11       -2.749165
   12       -2.594861
   13       -1.672567
   14       -1.488278
   15       -1.117947
   16       -0.802010
   17       -0.605228
   18       -0.121297
   19        1.360643
   20        1.650038
   21        2.082513
   22        2.143005
   23        2.145517
   24        2.290092
 
 -0.1944444E+00  0.1388889E+00  0.1262379E-14  0.6172840E-02
    1      -12.048620
    2      -11.264189
    3      -10.514311
    4      -10.180374
    5       -4.711268
    6       -4.384555
    7       -4.220357
    8       -3.105447