       N       E                     dE             d eps       ncg     rms          rms(c)
DAV:   1     0.187257562454E+03    0.18726E+03   -0.95948E+03  7776   0.794E+02
DAV:   2    -0.179343142972E+02   -0.20519E+03   -0.19998E+03 11608   0.177E+02
DAV:   3    -0.368014941839E+02   -0.18867E+02   -0.18678E+02 10320   0.597E+01
DAV:   4    -0.374877310333E+02   -0.68624E+00   -0.68347E+00 12464   0.129E+01
DAV:   5    -0.374978441896E+02   -0.10113E-01   -0.10107E-01 11048   0.175E+00    0.214E+01
DAV:   6    -0.366666546665E+02    0.83119E+00   -0.73740E+00 10208   0.120E+01    0.922E+00
DAV:   7    -0.366318010566E+02    0.34854E-01   -0.87517E+00  9872   0.136E+01    0.743E+00
DAV:   8    -0.360926959221E+02    0.53911E+00   -0.14838E+00 10448   0.584E+00    0.252E+00
DAV:   9    -0.360663332149E+02    0.26363E-01   -0.34856E-01 10864   0.272E+00    0.685E-01
DAV:  10    -0.360617396920E+02    0.45935E-02   -0.27243E-02 10992   0.887E-01    0.252E-01
DAV:  11    -0.360610104754E+02    0.72922E-03   -0.51209E-03 11096   0.346E-01    0.255E-01
DAV:  12    -0.360605177390E+02    0.49274E-03   -0.13404E-03 10952   0.176E-01    0.129E-01
DAV:  13    -0.360604202971E+02    0.97442E-04   -0.48691E-04 11488   0.930E-02    0.896E-02
DAV:  14    -0.360600252195E+02    0.39508E-03   -0.48918E-04  9288   0.831E-02    0.398E-02
DAV:  15    -0.360600671458E+02   -0.41926E-04   -0.84501E-05 11432   0.401E-02    0.296E-02
DAV:  16    -0.360602258439E+02   -0.15870E-03   -0.19049E-05  9352   0.209E-02    0.343E-02
DAV:  17    -0.360603655381E+02   -0.13969E-03   -0.20120E-05  9320   0.170E-02    0.205E-02
DAV:  18    -0.360604692298E+02   -0.10369E-03   -0.89727E-06 10472   0.127E-02    0.633E-03
DAV:  19    -0.360605399551E+02   -0.70725E-04   -0.23895E-06  7160   0.593E-03    0.793E-03
DAV:  20    -0.360605538487E+02   -0.13894E-04   -0.49322E-07  6464   0.267E-03    0.374E-03
DAV:  21    -0.360605567745E+02   -0.29258E-05   -0.16001E-07  5712   0.139E-03    0.153E-03
DAV:  22    -0.360605573501E+02   -0.57564E-06   -0.73482E-08  4984   0.102E-03
   1 F= -.36060557E+02 E0= -.36059831E+02  d E =-.360606E+02
       N       E                     dE             d eps       ncg     rms          rms(c)
DAV:   1    -0.360605657074E+02   -0.89329E-05   -0.34604E-04  8208   0.815E-02    0.151E-02
DAV:   2    -0.360605661452E+02   -0.43781E-06   -0.16594E-05  8984   0.198E-02    0.902E-03
DAV:   3    -0.360605657580E+02    0.38715E-06   -0.45967E-07  4528   0.419E-03
   2 F= -.36060566E+02 E0= -.36059839E+02  d E =-.840791E-05
       N       E                     dE             d eps       ncg     rms          rms(c)
DAV:   1    -0.360605659598E+02    0.18541E-06   -0.87377E-05  8256   0.410E-02    0.815E-03
DAV:   2    -0.360605659440E+02    0.15765E-07   -0.45918E-06  8432   0.952E-03
   3 F= -.36060566E+02 E0= -.36059839E+02  d E =-.859389E-05
