<?xml version="1.0" encoding="ISO-8859-1"?>
<modeling>
 <generator>
  <i name="program" type="string">vasp </i>
  <i name="version" type="string">5.3.5  </i>
  <i name="subversion" type="string">31Mar14 (build Mar 18 2017 11:34:20) complex                          parallel </i>
  <i name="platform" type="string">LinuxIFC </i>
  <i name="date" type="string">2017 10 27 </i>
  <i name="time" type="string">21:51:55 </i>
 </generator>
 <incar>
  <i type="string" name="SYSTEM"> 2D MoTe2 in a box</i>
  <i type="string" name="PREC">accurate</i>
  <i type="string" name="ALGO"> Normal</i>
  <i type="int" name="NELMDL">    -5</i>
  <i type="int" name="IBRION">     2</i>
  <i name="EDIFF">      0.00000100</i>
  <i type="int" name="NSW">  1000</i>
  <i type="int" name="ISIF">     2</i>
  <i type="int" name="ISYM">     0</i>
  <i name="ENCUT">    350.00000000</i>
  <i name="POTIM">      0.50000000</i>
  <i name="NELECT">     35.98000000</i>
  <i type="logical" name="LREAL"> F  </i>
  <i type="int" name="ISMEAR">    -1</i>
  <i name="SIGMA">      0.02586521</i>
  <i type="int" name="NWRITE">     3</i>
  <i type="logical" name="LWAVE"> F  </i>
  <i type="logical" name="LCHARG"> F  </i>
 </incar>
 <kpoints>
  <generation param="Monkhorst-Pack">
   <v type="int" name="divisions">      18       18        1 </v>
   <v name="usershift">      0.00000000       0.00000000       0.00000000 </v>
   <v name="genvec1">      0.05555556       0.00000000       0.00000000 </v>
   <v name="genvec2">      0.00000000       0.05555556       0.00000000 </v>
   <v name="genvec3">      0.00000000       0.00000000       1.00000000 </v>
   <v name="shift">      0.50000000       0.50000000       0.00000000 </v>
  </generation>
  <varray name="kpointlist" >
   <v>       0.02777778       0.02777778       0.00000000 </v>
   <v>       0.08333333       0.02777778       0.00000000 </v>
   <v>       0.13888889       0.02777778       0.00000000 </v>
   <v>       0.19444444       0.02777778       0.00000000 </v>
   <v>       0.25000000       0.02777778       0.00000000 </v>
   <v>       0.30555556       0.02777778       0.00000000 </v>
   <v>       0.36111111       0.02777778       0.00000000 </v>
   <v>       0.41666667       0.02777778       0.00000000 </v>
   <v>       0.47222222       0.02777778       0.00000000 </v>
   <v>      -0.47222222       0.02777778       0.00000000 </v>
   <v>      -0.41666667       0.02777778       0.00000000 </v>
   <v>      -0.36111111       0.02777778       0.00000000 </v>
   <v>      -0.30555556       0.02777778       0.00000000 </v>
   <v>      -0.25000000       0.02777778       0.00000000 </v>
   <v>      -0.19444444       0.02777778       0.00000000 </v>
   <v>      -0.13888889       0.02777778       0.00000000 </v>
   <v>      -0.08333333       0.02777778       0.00000000 </v>
   <v>      -0.02777778       0.02777778       0.00000000 </v>
   <v>       0.02777778       0.08333333       0.00000000 </v>
   <v>       0.08333333       0.08333333       0.00000000 </v>
   <v>       0.13888889       0.08333333       0.00000000 </v>
   <v>       0.19444444       0.08333333       0.00000000 </v>
   <v>       0.25000000       0.08333333       0.00000000 </v>
   <v>       0.30555556       0.08333333       0.00000000 </v>
   <v>       0.36111111       0.08333333       0.00000000 </v>
   <v>       0.41666667       0.08333333       0.00000000 </v>
   <v>       0.47222222       0.08333333       0.00000000 </v>
   <v>      -0.47222222       0.08333333       0.00000000 </v>
   <v>      -0.41666667       0.08333333       0.00000000 </v>
   <v>      -0.36111111       0.08333333       0.00000000 </v>
   <v>      -0.30555556       0.08333333       0.00000000 </v>
   <v>      -0.25000000       0.08333333       0.00000000 </v>
   <v>      -0.19444444       0.08333333       0.00000000 </v>
   <v>      -0.13888889       0.08333333       0.00000000 </v>
   <v>      -0.08333333       0.08333333       0.00000000 </v>
   <v>      -0.02777778       0.08333333       0.00000000 </v>
   <v>       0.02777778       0.13888889       0.00000000 </v>
   <v>       0.08333333       0.13888889       0.00000000 </v>
   <v>       0.13888889       0.13888889       0.00000000 </v>
   <v>       0.19444444       0.13888889       0.00000000 </v>
   <v>       0.25000000       0.13888889       0.00000000 </v>
   <v>       0.30555556       0.13888889       0.00000000 </v>
   <v>       0.36111111       0.13888889       0.00000000 </v>
   <v>       0.41666667       0.13888889       0.00000000 </v>
   <v>       0.47222222       0.13888889       0.00000000 </v>
   <v>      -0.47222222       0.13888889       0.00000000 </v>
   <v>      -0.41666667       0.13888889       0.00000000 </v>
   <v>      -0.36111111       0.13888889       0.00000000 </v>
   <v>      -0.30555556       0.13888889       0.00000000 </v>
   <v>      -0.25000000       0.13888889       0.00000000 </v>
   <v>      -0.19444444       0.13888889       0.00000000 </v>
   <v>      -0.13888889       0.13888889       0.00000000 </v>
   <v>      -0.08333333       0.13888889       0.00000000 </v>
   <v>      -0.02777778       0.13888889       0.00000000 </v>
   <v>       0.02777778       0.19444444       0.00000000 </v>
   <v>       0.08333333       0.19444444       0.00000000 </v>
   <v>       0.13888889       0.19444444       0.00000000 </v>
   <v>       0.19444444       0.19444444       0.00000000 </v>
   <v>       0.25000000       0.19444444       0.00000000 </v>
   <v>       0.30555556       0.19444444       0.00000000 </v>
   <v>       0.36111111       0.19444444       0.00000000 </v>
   <v>       0.41666667       0.19444444       0.00000000 </v>
   <v>       0.47222222       0.19444444       0.00000000 </v>
   <v>      -0.47222222       0.19444444       0.00000000 </v>
   <v>      -0.41666667       0.19444444       0.00000000 </v>
   <v>      -0.36111111       0.19444444       0.00000000 </v>
   <v>      -0.30555556       0.19444444       0.00000000 </v>
   <v>      -0.25000000       0.19444444       0.00000000 </v>
   <v>      -0.19444444       0.19444444       0.00000000 </v>
   <v>      -0.13888889       0.19444444       0.00000000 </v>
   <v>      -0.08333333       0.19444444       0.00000000 </v>
   <v>      -0.02777778       0.19444444       0.00000000 </v>
   <v>       0.02777778       0.25000000       0.00000000 </v>
   <v>       0.08333333       0.25000000       0.00000000 </v>
   <v>       0.13888889       0.25000000       0.00000000 </v>
   <v>       0.19444444       0.25000000       0.00000000 </v>
   <v>       0.25000000       0.25000000       0.00000000 </v>
   <v>       0.30555556       0.25000000       0.00000000 </v>
   <v>       0.36111111       0.25000000       0.00000000 </v>
   <v>       0.41666667       0.25000000       0.00000000 </v>
   <v>       0.47222222       0.25000000       0.00000000 </v>
   <v>      -0.47222222       0.25000000       0.00000000 </v>
   <v>      -0.41666667       0.25000000       0.00000000 </v>
   <v>      -0.36111111       0.25000000       0.00000000 </v>
   <v>      -0.30555556       0.25000000       0.00000000 </v>
   <v>      -0.25000000       0.25000000       0.00000000 </v>
   <v>      -0.19444444       0.25000000       0.00000000 </v>
   <v>      -0.13888889       0.25000000       0.00000000 </v>
   <v>      -0.08333333       0.25000000       0.00000000 </v>
   <v>      -0.02777778       0.25000000       0.00000000 </v>
   <v>       0.02777778       0.30555556       0.00000000 </v>
   <v>       0.08333333       0.30555556       0.00000000 </v>
   <v>       0.13888889       0.30555556       0.00000000 </v>
   <v>       0.19444444       0.30555556       0.00000000 </v>
   <v>       0.25000000       0.30555556       0.00000000 </v>
   <v>       0.30555556       0.30555556       0.00000000 </v>
   <v>       0.36111111       0.30555556       0.00000000 </v>
   <v>       0.41666667       0.30555556       0.00000000 </v>
   <v>       0.47222222       0.30555556       0.00000000 </v>
   <v>      -0.47222222       0.30555556       0.00000000 </v>
   <v>      -0.41666667       0.30555556       0.00000000 </v>
   <v>      -0.36111111       0.30555556       0.00000000 </v>
   <v>      -0.30555556       0.30555556       0.00000000 </v>
   <v>      -0.25000000       0.30555556       0.00000000 </v>
   <v>      -0.19444444       0.30555556       0.00000000 </v>
   <v>      -0.13888889       0.30555556       0.00000000 </v>
   <v>      -0.08333333       0.30555556       0.00000000 </v>
   <v>      -0.02777778       0.30555556       0.00000000 </v>
   <v>       0.02777778       0.36111111       0.00000000 </v>
   <v>       0.08333333       0.36111111       0.00000000 </v>
   <v>       0.13888889       0.36111111       0.00000000 </v>
   <v>       0.19444444       0.36111111       0.00000000 </v>
   <v>       0.25000000       0.36111111       0.00000000 </v>
   <v>       0.30555556       0.36111111       0.00000000 </v>
   <v>       0.36111111       0.36111111       0.00000000 </v>
   <v>       0.41666667       0.36111111       0.00000000 </v>
   <v>       0.47222222       0.36111111       0.00000000 </v>
   <v>      -0.47222222       0.36111111       0.00000000 </v>
   <v>      -0.41666667       0.36111111       0.00000000 </v>
   <v>      -0.36111111       0.36111111       0.00000000 </v>
   <v>      -0.30555556       0.36111111       0.00000000 </v>
   <v>      -0.25000000       0.36111111       0.00000000 </v>
   <v>      -0.19444444       0.36111111       0.00000000 </v>
   <v>      -0.13888889       0.36111111       0.00000000 </v>
   <v>      -0.08333333       0.36111111       0.00000000 </v>
   <v>      -0.02777778       0.36111111       0.00000000 </v>
   <v>       0.02777778       0.41666667       0.00000000 </v>
   <v>       0.08333333       0.41666667       0.00000000 </v>
   <v>       0.13888889       0.41666667       0.00000000 </v>
   <v>       0.19444444       0.41666667       0.00000000 </v>
   <v>       0.25000000       0.41666667       0.00000000 </v>
   <v>       0.30555556       0.41666667       0.00000000 </v>
   <v>       0.36111111       0.41666667       0.00000000 </v>
   <v>       0.41666667       0.41666667       0.00000000 </v>
   <v>       0.47222222       0.41666667       0.00000000 </v>
   <v>      -0.47222222       0.41666667       0.00000000 </v>
   <v>      -0.41666667       0.41666667       0.00000000 </v>
   <v>      -0.36111111       0.41666667       0.00000000 </v>
   <v>      -0.30555556       0.41666667       0.00000000 </v>
   <v>      -0.25000000       0.41666667       0.00000000 </v>
   <v>      -0.19444444       0.41666667       0.00000000 </v>
   <v>      -0.13888889       0.41666667       0.00000000 </v>
   <v>      -0.08333333       0.41666667       0.00000000 </v>
   <v>      -0.02777778       0.41666667       0.00000000 </v>
   <v>       0.02777778       0.47222222       0.00000000 </v>
   <v>       0.08333333       0.47222222       0.00000000 </v>
   <v>       0.13888889       0.47222222       0.00000000 </v>
   <v>       0.19444444       0.47222222       0.00000000 </v>
   <v>       0.25000000       0.47222222       0.00000000 </v>
   <v>       0.30555556       0.47222222       0.00000000 </v>
   <v>       0.36111111       0.47222222       0.00000000 </v>
   <v>       0.41666667       0.47222222       0.00000000 </v>
   <v>       0.47222222       0.47222222       0.00000000 </v>
   <v>      -0.47222222       0.47222222       0.00000000 </v>
   <v>      -0.41666667       0.47222222       0.00000000 </v>
   <v>      -0.36111111       0.47222222       0.00000000 </v>
   <v>      -0.30555556       0.47222222       0.00000000 </v>
   <v>      -0.25000000       0.47222222       0.00000000 </v>
   <v>      -0.19444444       0.47222222       0.00000000 </v>
   <v>      -0.13888889       0.47222222       0.00000000 </v>
   <v>      -0.08333333       0.47222222       0.00000000 </v>
   <v>      -0.02777778       0.47222222       0.00000000 </v>
  </varray>
  <varray name="weights" >
   <v>       0.00617284 </v>
   <v>       0.00617284 </v>
   <v>       0.00617284 </v>
   <v>       0.00617284 </v>
   <v>       0.00617284 </v>
   <v>       0.00617284 </v>
   <v>       0.00617284 </v>
   <v>       0.00617284 </v>
   <v>       0.00617284 </v>
   <v>       0.00617284 </v>
   <v>       0.00617284 </v>
   <v>       0.00617284 </v>
   <v>       0.00617284 </v>
   <v>       0.00617284 </v>
   <v>       0.00617284 </v>
   <v>       0.00617284 </v>
   <v>       0.00617284 </v>
   <v>       0.00617284 </v>
   <v>       0.00617284 </v>
   <v>       0.00617284 </v>
   <v>       0.00617284 </v>
   <v>       0.00617284 </v>
   <v>       0.00617284 </v>
   <v>       0.00617284 </v>
   <v>       0.00617284 </v>
   <v>       0.00617284 </v>
   <v>       0.00617284 </v>
   <v>       0.00617284 </v>
   <v>       0.00617284 </v>
   <v>       0.00617284 </v>
   <v>       0.00617284 </v>
   <v>       0.00617284 </v>
   <v>       0.00617284 </v>
   <v>       0.00617284 </v>
   <v>       0.00617284 </v>
   <v>       0.00617284 </v>
   <v>       0.00617284 </v>
   <v>       0.00617284 </v>
   <v>       0.00617284 </v>
   <v>       0.00617284 </v>
   <v>       0.00617284 </v>
   <v>       0.00617284 </v>
   <v>       0.00617284 </v>
   <v>       0.00617284 </v>
   <v>       0.00617284 </v>
   <v>       0.00617284 </v>
   <v>       0.00617284 </v>
   <v>       0.00617284 </v>
   <v>       0.00617284 </v>
   <v>       0.00617284 </v>
   <v>       0.00617284 </v>
   <v>       0.00617284 </v>
   <v>       0.00617284 </v>
   <v>       0.00617284 </v>
   <v>       0.00617284 </v>
   <v>       0.00617284 </v>
   <v>       0.00617284 </v>
   <v>       0.00617284 </v>
   <v>       0.00617284 </v>
   <v>       0.00617284 </v>
   <v>       0.00617284 </v>
   <v>       0.00617284 </v>
   <v>       0.00617284 </v>
   <v>       0.00617284 </v>
   <v>       0.00617284 </v>
   <v>       0.00617284 </v>
   <v>       0.00617284 </v>
   <v>       0.00617284 </v>
   <v>       0.00617284 </v>
   <v>       0.00617284 </v>
   <v>       0.00617284 </v>
   <v>       0.00617284 </v>
   <v>       0.00617284 </v>
   <v>       0.00617284 </v>
   <v>       0.00617284 </v>
   <v>       0.00617284 </v>
   <v>       0.00617284 </v>
   <v>       0.00617284 </v>
   <v>       0.00617284 </v>
   <v>       0.00617284 </v>
   <v>       0.00617284 </v>
   <v>       0.00617284 </v>
   <v>       0.00617284 </v>
   <v>       0.00617284 </v>
   <v>       0.00617284 </v>
   <v>       0.00617284 </v>
   <v>       0.00617284 </v>
   <v>       0.00617284 </v>
   <v>       0.00617284 </v>
   <v>       0.00617284 </v>
   <v>       0.00617284 </v>
   <v>       0.00617284 </v>
   <v>       0.00617284 </v>
   <v>       0.00617284 </v>
   <v>       0.00617284 </v>
   <v>       0.00617284 </v>
   <v>       0.00617284 </v>
   <v>       0.00617284 </v>
   <v>       0.00617284 </v>
   <v>       0.00617284 </v>
   <v>       0.00617284 </v>
   <v>       0.00617284 </v>
   <v>       0.00617284 </v>
   <v>       0.00617284 </v>
   <v>       0.00617284 </v>
   <v>       0.00617284 </v>
   <v>       0.00617284 </v>
   <v>       0.00617284 </v>
   <v>       0.00617284 </v>
   <v>       0.00617284 </v>
   <v>       0.00617284 </v>
   <v>       0.00617284 </v>
   <v>       0.00617284 </v>
   <v>       0.00617284 </v>
   <v>       0.00617284 </v>
   <v>       0.00617284 </v>
   <v>       0.00617284 </v>
   <v>       0.00617284 </v>
   <v>       0.00617284 </v>
   <v>       0.00617284 </v>
   <v>       0.00617284 </v>
   <v>       0.00617284 </v>
   <v>       0.00617284 </v>
   <v>       0.00617284 </v>
   <v>       0.00617284 </v>
   <v>       0.00617284 </v>
   <v>       0.00617284 </v>
   <v>       0.00617284 </v>
   <v>       0.00617284 </v>
   <v>       0.00617284 </v>
   <v>       0.00617284 </v>
   <v>       0.00617284 </v>
   <v>       0.00617284 </v>
   <v>       0.00617284 </v>
   <v>       0.00617284 </v>
   <v>       0.00617284 </v>
   <v>       0.00617284 </v>
   <v>       0.00617284 </v>
   <v>       0.00617284 </v>
   <v>       0.00617284 </v>
   <v>       0.00617284 </v>
   <v>       0.00617284 </v>
   <v>       0.00617284 </v>
   <v>       0.00617284 </v>
   <v>       0.00617284 </v>
   <v>       0.00617284 </v>
   <v>       0.00617284 </v>
   <v>       0.00617284 </v>
   <v>       0.00617284 </v>
   <v>       0.00617284 </v>
   <v>       0.00617284 </v>
   <v>       0.00617284 </v>
   <v>       0.00617284 </v>
   <v>       0.00617284 </v>
   <v>       0.00617284 </v>
   <v>       0.00617284 </v>
   <v>       0.00617284 </v>
   <v>       0.00617284 </v>
   <v>       0.00617284 </v>
   <v>       0.00617284 </v>
   <v>       0.00617284 </v>
   <v>       0.00617284 </v>
  </varray>
 </kpoints>
 <parameters>
  <separator name="general" >
   <i type="string" name="SYSTEM">2D MoTe2 in a box</i>
   <i type="logical" name="LCOMPAT"> F  </i>
  </separator>
  <separator name="electronic" >
   <i type="string" name="PREC">accura</i>
   <i name="ENMAX">    350.00000000</i>
   <i name="ENAUG">    368.79200000</i>
   <i name="EDIFF">      0.00000100</i>
   <i type="int" name="IALGO">    38</i>
   <i type="int" name="IWAVPR">    11</i>
   <i type="int" name="NBANDS">    24</i>
   <i name="NELECT">     35.98000000</i>
   <i type="int" name="TURBO">     0</i>
   <i type="int" name="IRESTART">     0</i>
   <i type="int" name="NREBOOT">     0</i>
   <i type="int" name="NMIN">     0</i>
   <i name="EREF">      0.00000000</i>
   <separator name="electronic smearing" >
    <i type="int" name="ISMEAR">    -1</i>
    <i name="SIGMA">      0.02586521</i>
    <i name="KSPACING">      0.50000000</i>
    <i type="logical" name="KGAMMA"> T  </i>
   </separator>
   <separator name="electronic projectors" >
    <i type="logical" name="LREAL"> F  </i>
    <v name="ROPT">      0.00000000      0.00000000</v>
    <i type="int" name="LMAXPAW">  -100</i>
    <i type="int" name="LMAXMIX">     2</i>
    <i type="logical" name="NLSPLINE"> F  </i>
   </separator>
   <separator name="electronic startup" >
    <i type="int" name="ISTART">     0</i>
    <i type="int" name="ICHARG">     2</i>
    <i type="int" name="INIWAV">     1</i>
   </separator>
   <separator name="electronic spin" >
    <i type="int" name="ISPIN">     1</i>
    <i type="logical" name="LNONCOLLINEAR"> F  </i>
    <v name="MAGMOM">      1.00000000      1.00000000      1.00000000      1.00000000      1.00000000      1.00000000</v>
    <i name="NUPDOWN">     -1.00000000</i>
    <i type="logical" name="LSORBIT"> F  </i>
    <v name="SAXIS">      0.00000000      0.00000000      1.00000000</v>
    <i type="logical" name="LSPIRAL"> F  </i>
    <v name="QSPIRAL">      0.00000000      0.00000000      0.00000000</v>
    <i type="logical" name="LZEROZ"> F  </i>
   </separator>
   <separator name="electronic exchange-correlation" >
    <i type="logical" name="LASPH"> F  </i>
    <i type="logical" name="LMETAGGA"> F  </i>
   </separator>
   <separator name="electronic convergence" >
    <i type="int" name="NELM">    60</i>
    <i type="int" name="NELMDL">    -5</i>
    <i type="int" name="NELMIN">     2</i>
    <i name="ENINI">    350.00000000</i>
    <separator name="electronic convergence detail" >
     <i type="logical" name="LDIAG"> T  </i>
     <i type="logical" name="LSUBROT"> F  </i>
     <i name="WEIMIN">      0.00100000</i>
     <i name="EBREAK">      0.00000001</i>
     <i name="DEPER">      0.30000000</i>
     <i type="int" name="NRMM">     4</i>
     <i name="TIME">      0.40000000</i>
    </separator>
   </separator>
   <separator name="electronic mixer" >
    <i name="AMIX">      0.40000000</i>
    <i name="BMIX">      1.00000000</i>
    <i name="AMIN">      0.10000000</i>
    <i name="AMIX_MAG">      1.60000000</i>
    <i name="BMIX_MAG">      1.00000000</i>
    <separator name="electronic mixer details" >
     <i type="int" name="IMIX">     4</i>
     <i type="int" name="MAXMIX">   -45</i>
     <i name="WC">    100.00000000</i>
     <i type="int" name="INIMIX">     1</i>
     <i type="int" name="MIXPRE">     1</i>
     <i type="int" name="MREMOVE">     5</i>
    </separator>
   </separator>
   <separator name="electronic dipolcorrection" >
    <i type="logical" name="LDIPOL"> F  </i>
    <i type="logical" name="LMONO"> F  </i>
    <i type="int" name="IDIPOL">     0</i>
    <i name="EPSILON">      1.00000000</i>
    <v name="DIPOL">   -100.00000000   -100.00000000   -100.00000000</v>
    <i name="EFIELD">      0.00000000</i>
   </separator>
  </separator>
  <separator name="grids" >
   <i type="int" name="NGX">    24</i>
   <i type="int" name="NGY">    40</i>
   <i type="int" name="NGZ">    98</i>
   <i type="int" name="NGXF">    48</i>
   <i type="int" name="NGYF">    80</i>
   <i type="int" name="NGZF">   196</i>
   <i type="logical" name="ADDGRID"> F  </i>
  </separator>
  <separator name="ionic" >
   <i type="int" name="NSW">  1000</i>
   <i type="int" name="IBRION">     2</i>
   <i type="int" name="ISIF">     2</i>
   <i name="PSTRESS">      0.00000000</i>
   <i name="EDIFFG">      0.00001000</i>
   <i type="int" name="NFREE">     1</i>
   <i name="POTIM">      0.50000000</i>
   <i name="SMASS">     -3.00000000</i>
   <i name="SCALEE">      1.00000000</i>
  </separator>
  <separator name="ionic md" >
   <i name="TEBEG">      0.00010000</i>
   <i name="TEEND">      0.00010000</i>
   <i type="int" name="NBLOCK">     1</i>
   <i type="int" name="KBLOCK">  1000</i>
   <i type="int" name="NPACO">   256</i>
   <i name="APACO">     16.00000000</i>
  </separator>
  <separator name="symmetry" >
   <i type="int" name="ISYM">     0</i>
   <i name="SYMPREC">      0.00001000</i>
  </separator>
  <separator name="dos" >
   <i type="logical" name="LORBIT"> F  </i>
   <v name="RWIGS">     -1.00000000     -1.00000000</v>
   <i type="int" name="NEDOS">   301</i>
   <i name="EMIN">     10.00000000</i>
   <i name="EMAX">    -10.00000000</i>
   <i name="EFERMI">      0.00000000</i>
  </separator>
  <separator name="writing" >
   <i type="int" name="NWRITE">     3</i>
   <i type="logical" name="LWAVE"> F  </i>
   <i type="logical" name="LCHARG"> F  </i>
   <i type="logical" name="LPARD"> F  </i>
   <i type="logical" name="LVTOT"> F  </i>
   <i type="logical" name="LVHAR"> F  </i>
   <i type="logical" name="LELF"> F  </i>
   <i type="logical" name="LOPTICS"> F  </i>
   <v name="STM">      0.00000000      0.00000000      0.00000000      0.00000000      0.00000000      0.00000000      0.00000000</v>
  </separator>
  <separator name="performance" >
   <i type="int" name="NPAR">     8</i>
   <i type="int" name="NSIM">     4</i>
   <i type="int" name="NBLK">    -1</i>
   <i type="logical" name="LPLANE"> T  </i>
   <i type="logical" name="LSCALAPACK"> T  </i>
   <i type="logical" name="LSCAAWARE"> F  </i>
   <i type="logical" name="LSCALU"> F  </i>
   <i type="logical" name="LASYNC"> F  </i>
   <i type="logical" name="LORBITALREAL"> F  </i>
  </separator>
  <separator name="miscellaneous" >
   <i type="int" name="IDIOT">     3</i>
   <i type="logical" name="LMUSIC"> F  </i>
   <v name="POMASS">    127.60000000     95.94000000</v>
   <v name="DARWINR">      0.00000000      0.00000000</v>
   <v name="DARWINV">      1.00000000      1.00000000</v>
   <i type="logical" name="LCORR"> T  </i>
  </separator>
  <i type="logical" name="GGA_COMPAT"> T  </i>
  <i type="logical" name="LBERRY"> F  </i>
  <i type="int" name="ICORELEVEL">     0</i>
  <i type="logical" name="LDAU"> F  </i>
  <i type="int" name="I_CONSTRAINED_M">     0</i>
  <separator name="electronic exchange-correlation" >
   <i type="string" name="GGA">--</i>
   <i type="int" name="VOSKOWN">     0</i>
   <i type="logical" name="LHFCALC"> F  </i>
   <i type="string" name="PRECFOCK"></i>
   <i type="logical" name="LSYMGRAD"> F  </i>
   <i type="logical" name="LHFONE"> F  </i>
   <i type="logical" name="LRHFCALC"> F  </i>
   <i type="logical" name="LTHOMAS"> F  </i>
   <i type="logical" name="LMODELHF"> F  </i>
   <i name="ENCUT4O">     -1.00000000</i>
   <i type="int" name="EXXOEP">     0</i>
   <i type="int" name="FOURORBIT">     0</i>
   <i name="AEXX">      0.00000000</i>
   <i name="HFALPHA">      0.00000000</i>
   <i name="MCALPHA">      0.00000000</i>
   <i name="ALDAX">      1.00000000</i>
   <i name="AGGAX">      1.00000000</i>
   <i name="ALDAC">      1.00000000</i>
   <i name="AGGAC">      1.00000000</i>
   <i type="int" name="NKREDX">     1</i>
   <i type="int" name="NKREDY">     1</i>
   <i type="int" name="NKREDZ">     1</i>
   <i type="logical" name="SHIFTRED"> F  </i>
   <i type="logical" name="ODDONLY"> F  </i>
   <i type="logical" name="EVENONLY"> F  </i>
   <i type="int" name="LMAXFOCK">     0</i>
   <i type="int" name="NMAXFOCKAE">     0</i>
   <i type="logical" name="LFOCKAEDFT"> F  </i>
   <i name="HFSCREEN">      0.00000000</i>
   <i name="HFSCREENC">      0.00000000</i>
   <i type="int" name="NBANDSGWLOW">     0</i>
  </separator>
  <separator name="vdW DFT" >
   <i type="logical" name="LUSE_VDW"> F  </i>
   <i name="Zab_VDW">     -0.84910000</i>
   <i name="PARAM1">      0.12340000</i>
   <i name="PARAM2">      1.00000000</i>
   <i name="PARAM3">      0.00000000</i>
  </separator>
  <separator name="model GW" >
   <i type="int" name="MODEL_GW">     0</i>
   <i name="MODEL_EPS0">     34.93615840</i>
   <i name="MODEL_ALPHA">      1.00000000</i>
  </separator>
  <separator name="linear response parameters" >
   <i type="logical" name="LEPSILON"> F  </i>
   <i type="logical" name="LRPA"> F  </i>
   <i type="logical" name="LNABLA"> F  </i>
   <i type="logical" name="LVEL"> F  </i>
   <i type="int" name="KINTER">     0</i>
   <i name="CSHIFT">      0.10000000</i>
   <i name="OMEGAMAX">     -1.00000000</i>
   <i name="DEG_THRESHOLD">      0.00200000</i>
  </separator>
  <separator name="orbital magnetization" >
   <i type="logical" name="NUCIND"> F  </i>
   <v name="MAGPOS">      0.00000000      0.00000000      0.00000000</v>
   <i type="logical" name="LNICSALL"> T  </i>
   <i type="logical" name="ORBITALMAG"> F  </i>
   <i type="logical" name="LMAGBLOCH"> F  </i>
   <i type="logical" name="LCHIMAG"> F  </i>
   <i type="logical" name="LGAUGE"> T  </i>
   <i type="int" name="MAGATOM">     0</i>
   <v name="MAGDIPOL">      0.00000000      0.00000000      0.00000000</v>
   <v name="AVECCONST">      0.00000000      0.00000000      0.00000000</v>
  </separator>
  <separator name="response functions" >
   <i type="logical" name="LADDER"> F  </i>
   <i type="logical" name="LFXC"> F  </i>
   <i type="logical" name="LHARTREE"> T  </i>
   <i type="int" name="IBSE">     0</i>
   <i type="logical" name="LTCTE"> F  </i>
   <i type="logical" name="LTETE"> F  </i>
   <i type="logical" name="LTRIPLET"> F  </i>
   <i type="logical" name="LFXCEPS"> F  </i>
   <i type="logical" name="LFXHEG"> F  </i>
   <i type="logical" name="L2ORDER"> F  </i>
   <i type="logical" name="LUSEW"> F  </i>
   <i name="ENCUTGW">     -2.00000000</i>
   <i name="ENCUTGWSOFT">     -2.00000000</i>
   <i name="ENCUTLF">     -1.00000000</i>
   <i type="int" name="LMAXMP2">    -1</i>
   <i name="SCISSOR">      0.00000000</i>
   <i type="int" name="NOMEGA">     0</i>
   <i type="int" name="NOMEGAR">     0</i>
   <i type="int" name="NBANDSGW">    -1</i>
   <i type="int" name="NBANDSO">    -1</i>
   <i type="int" name="NBANDSV">    -1</i>
   <i type="int" name="NELM">     1</i>
   <i type="int" name="DIM">     3</i>
   <i type="int" name="ANTIRES">     0</i>
   <i name="OMEGAMAX">    -30.00000000</i>
   <i name="OMEGAMIN">    -30.00000000</i>
   <i name="OMEGATL">   -200.00000000</i>
   <i type="int" name="OMEGAGRID">     0</i>
   <i name="CSHIFT">     -0.10000000</i>
   <i type="logical" name="SELFENERGY"> F  </i>
   <i type="logical" name="LSPECTRAL"> F  </i>
   <i type="logical" name="ODDONLYGW"> F  </i>
   <i type="logical" name="EVENONLYGW"> F  </i>
   <i type="int" name="NKREDLFX">     1</i>
   <i type="int" name="NKREDLFY">     1</i>
   <i type="int" name="NKREDLFZ">     1</i>
   <i type="int" name="MAXMEM">  1800</i>
   <i type="int" name="TELESCOPE">     0</i>
   <i type="int" name="TAUPAR">     1</i>
  </separator>
  <separator name="External order field" >
   <i name="OFIELD_KAPPA">      0.00000000</i>
   <v name="OFIELD_K">      0.00000000      0.00000000      0.00000000</v>
   <i name="OFIELD_Q6_NEAR">      0.00000000</i>
   <i name="OFIELD_Q6_FAR">      0.00000000</i>
   <i name="OFIELD_A">      0.00000000</i>
  </separator>
 </parameters>
 <atominfo>
  <atoms>       6 </atoms>
  <types>       2 </types>
  <array name="atoms" >
   <dimension dim="1">ion</dimension>
   <field type="string">element</field>
   <field type="int">atomtype</field>
   <set>
    <rc><c>Te</c><c>   1</c></rc>
    <rc><c>Te</c><c>   1</c></rc>
    <rc><c>Te</c><c>   1</c></rc>
    <rc><c>Te</c><c>   1</c></rc>
    <rc><c>Mo</c><c>   2</c></rc>
    <rc><c>Mo</c><c>   2</c></rc>
   </set>
  </array>
  <array name="atomtypes" >
   <dimension dim="1">type</dimension>
   <field type="int">atomspertype</field>
   <field type="string">element</field>
   <field>mass</field>
   <field>valence</field>
   <field type="string">pseudopotential</field>
   <set>
    <rc><c>   4</c><c>Te</c><c>    127.60000000</c><c>      6.00000000</c><c>  PAW_PBE Te 08Apr2002                  </c></rc>
    <rc><c>   2</c><c>Mo</c><c>     95.94000000</c><c>      6.00000000</c><c>  PAW_PBE Mo 08Apr2002                  </c></rc>
   </set>
  </array>
 </atominfo>
 <structure name="initialpos" >
  <crystal>
   <varray name="basis" >
    <v>       3.55100000       0.00000000       0.00000000 </v>
    <v>       0.00000000       6.14900000       0.00000000 </v>
    <v>       0.00000000       0.00000000      16.00000000 </v>
   </varray>
   <i name="volume">    349.36158400 </i>
   <varray name="rec_basis" >
    <v>       0.28161081       0.00000000       0.00000000 </v>
    <v>       0.00000000       0.16262807       0.00000000 </v>
    <v>       0.00000000       0.00000000       0.06250000 </v>
   </varray>
  </crystal>
  <varray name="positions" >
   <v>       0.00000000       0.66665962       0.11282875 </v>
   <v>       0.00000000       0.66665962       0.88717125 </v>
   <v>       0.50000000       0.16665799       0.11282750 </v>
   <v>       0.50000000       0.16665799       0.88717250 </v>
   <v>       0.50000000       0.50001464       0.00000000 </v>
   <v>       0.00000000       0.00000813       0.00000000 </v>
  </varray>
 </structure>
 <calculation>
  <scstep>
   <time name="dav">    3.11    3.11</time>
   <time name="total">    3.16    3.17</time>
   <energy>
    <i name="alphaZ">     25.36157480 </i>
    <i name="ewald">   1695.32331395 </i>
    <i name="hartreedc">  -2977.11215032 </i>
    <i name="XCdc">   -233.75808350 </i>
    <i name="pawpsdc">   1362.14282323 </i>
    <i name="pawaedc">  -1065.87210056 </i>
    <i name="eentropy">     -0.00707277 </i>
    <i name="bandstr">     53.07471193 </i>
    <i name="atom">   1328.10454569 </i>
    <i name="e_fr_energy">    187.25756245 </i>
    <i name="e_wo_entrp">    187.26463522 </i>
    <i name="e_0_energy">    187.26109884 </i>
   </energy>
  </scstep>
  <scstep>
   <time name="dav">    3.84    3.84</time>
   <time name="total">    3.89    3.89</time>
   <energy>
    <i name="e_fr_energy">    -17.93431430 </i>
    <i name="e_wo_entrp">    -17.93325562 </i>
    <i name="e_0_energy">    -17.93378496 </i>
   </energy>
  </scstep>
  <scstep>
   <time name="dav">    3.67    3.68</time>
   <time name="total">    3.72    3.74</time>
   <energy>
    <i name="e_fr_energy">    -36.80149418 </i>
    <i name="e_wo_entrp">    -36.80023843 </i>
    <i name="e_0_energy">    -36.80086631 </i>
   </energy>
  </scstep>
  <scstep>
   <time name="dav">    4.10    4.10</time>
   <time name="total">    4.15    4.16</time>
   <energy>
    <i name="e_fr_energy">    -37.48773103 </i>
    <i name="e_wo_entrp">    -37.48648473 </i>
    <i name="e_0_energy">    -37.48710788 </i>
   </energy>
  </scstep>
  <scstep>
   <time name="dav">    3.70    3.70</time>
   <time name="total">    3.86    3.86</time>
   <energy>
    <i name="e_fr_energy">    -37.49784419 </i>
    <i name="e_wo_entrp">    -37.49659831 </i>
    <i name="e_0_energy">    -37.49722125 </i>
   </energy>
  </scstep>
  <scstep>
   <time name="dav">    3.50    3.50</time>
   <time name="total">    3.69    3.69</time>
   <energy>
    <i name="e_fr_energy">    -36.66665467 </i>
    <i name="e_wo_entrp">    -36.66469054 </i>
    <i name="e_0_energy">    -36.66567260 </i>
   </energy>
  </scstep>
  <scstep>
   <time name="dav">    3.45    3.45</time>
   <time name="total">    3.64    3.64</time>
   <energy>
    <i name="e_fr_energy">    -36.63180106 </i>
    <i name="e_wo_entrp">    -36.63050352 </i>
    <i name="e_0_energy">    -36.63115229 </i>
   </energy>
  </scstep>
  <scstep>
   <time name="dav">    3.79    3.79</time>
   <time name="total">    3.98    3.99</time>
   <energy>
    <i name="e_fr_energy">    -36.09269592 </i>
    <i name="e_wo_entrp">    -36.09128915 </i>
    <i name="e_0_energy">    -36.09199254 </i>
   </energy>
  </scstep>
  <scstep>
   <time name="dav">    3.67    3.67</time>
   <time name="total">    3.86    3.86</time>
   <energy>
    <i name="e_fr_energy">    -36.06633321 </i>
    <i name="e_wo_entrp">    -36.06486232 </i>
    <i name="e_0_energy">    -36.06559777 </i>
   </energy>
  </scstep>
  <scstep>
   <time name="dav">    3.69    3.69</time>
   <time name="total">    3.89    3.89</time>
   <energy>
    <i name="e_fr_energy">    -36.06173969 </i>
    <i name="e_wo_entrp">    -36.06028878 </i>
    <i name="e_0_energy">    -36.06101424 </i>
   </energy>
  </scstep>
  <scstep>
   <time name="dav">    3.83    3.83</time>
   <time name="total">    4.03    4.03</time>
   <energy>
    <i name="e_fr_energy">    -36.06101048 </i>
    <i name="e_wo_entrp">    -36.05954976 </i>
    <i name="e_0_energy">    -36.06028012 </i>
   </energy>
  </scstep>
  <scstep>
   <time name="dav">    3.75    3.78</time>
   <time name="total">    3.95    3.97</time>
   <energy>
    <i name="e_fr_energy">    -36.06051774 </i>
    <i name="e_wo_entrp">    -36.05906288 </i>
    <i name="e_0_energy">    -36.05979031 </i>
   </energy>
  </scstep>
  <scstep>
   <time name="dav">    3.81    3.81</time>
   <time name="total">    4.01    4.01</time>
   <energy>
    <i name="e_fr_energy">    -36.06042030 </i>
    <i name="e_wo_entrp">    -36.05896581 </i>
    <i name="e_0_energy">    -36.05969305 </i>
   </energy>
  </scstep>
  <scstep>
   <time name="dav">    3.31    3.31</time>
   <time name="total">    3.51    3.51</time>
   <energy>
    <i name="e_fr_energy">    -36.06002522 </i>
    <i name="e_wo_entrp">    -36.05857135 </i>
    <i name="e_0_energy">    -36.05929828 </i>
   </energy>
  </scstep>
  <scstep>
   <time name="dav">    3.82    3.82</time>
   <time name="total">    4.01    4.01</time>
   <energy>
    <i name="e_fr_energy">    -36.06006715 </i>
    <i name="e_wo_entrp">    -36.05861408 </i>
    <i name="e_0_energy">    -36.05934061 </i>
   </energy>
  </scstep>
  <scstep>
   <time name="dav">    3.57    3.57</time>
   <time name="total">    3.77    3.77</time>
   <energy>
    <i name="e_fr_energy">    -36.06022584 </i>
    <i name="e_wo_entrp">    -36.05877291 </i>
    <i name="e_0_energy">    -36.05949937 </i>
   </energy>
  </scstep>
  <scstep>
   <time name="dav">    3.32    3.32</time>
   <time name="total">    3.52    3.52</time>
   <energy>
    <i name="e_fr_energy">    -36.06036554 </i>
    <i name="e_wo_entrp">    -36.05891248 </i>
    <i name="e_0_energy">    -36.05963901 </i>
   </energy>
  </scstep>
  <scstep>
   <time name="dav">    3.58    3.58</time>
   <time name="total">    3.77    3.78</time>
   <energy>
    <i name="e_fr_energy">    -36.06046923 </i>
    <i name="e_wo_entrp">    -36.05901591 </i>
    <i name="e_0_energy">    -36.05974257 </i>
   </energy>
  </scstep>
  <scstep>
   <time name="dav">    2.91    2.91</time>
   <time name="total">    3.11    3.11</time>
   <energy>
    <i name="e_fr_energy">    -36.06053996 </i>
    <i name="e_wo_entrp">    -36.05908656 </i>
    <i name="e_0_energy">    -36.05981326 </i>
   </energy>
  </scstep>
  <scstep>
   <time name="dav">    2.90    2.92</time>
   <time name="total">    3.09    3.12</time>
   <energy>
    <i name="e_fr_energy">    -36.06055385 </i>
    <i name="e_wo_entrp">    -36.05910045 </i>
    <i name="e_0_energy">    -36.05982715 </i>
   </energy>
  </scstep>
  <scstep>
   <time name="dav">    2.59    2.59</time>
   <time name="total">    2.78    2.78</time>
   <energy>
    <i name="e_fr_energy">    -36.06055677 </i>
    <i name="e_wo_entrp">    -36.05910340 </i>
    <i name="e_0_energy">    -36.05983009 </i>
   </energy>
  </scstep>
  <scstep>
   <time name="dav">    2.43    2.43</time>
   <time name="total">    2.52    2.52</time>
   <energy>
    <i name="alphaZ">     25.36157480 </i>
    <i name="ewald">   1695.32331395 </i>
    <i name="hartreedc">  -2994.14974974 </i>
    <i name="XCdc">   -232.33517321 </i>
    <i name="pawpsdc">   2731.94082010 </i>
    <i name="pawaedc">  -2438.17317523 </i>
    <i name="eentropy">     -0.00145335 </i>
    <i name="bandstr">   -152.13126036 </i>
    <i name="atom">   1328.10454569 </i>
    <i name="e_fr_energy">    -36.06055735 </i>
    <i name="e_wo_entrp">    -36.05910400 </i>
    <i name="e_0_energy">    -36.05983068 </i>
   </energy>
  </scstep>
  <structure>
   <crystal>
    <varray name="basis" >
     <v>       3.55100000       0.00000000       0.00000000 </v>
     <v>       0.00000000       6.14900000       0.00000000 </v>
     <v>       0.00000000       0.00000000      16.00000000 </v>
    </varray>
    <i name="volume">    349.36158400 </i>
    <varray name="rec_basis" >
     <v>       0.28161081       0.00000000       0.00000000 </v>
     <v>       0.00000000       0.16262807       0.00000000 </v>
     <v>       0.00000000       0.00000000       0.06250000 </v>
    </varray>
   </crystal>
   <varray name="positions" >
    <v>       0.00000000       0.66665962       0.11282875 </v>
    <v>       0.00000000       0.66665962       0.88717125 </v>
    <v>       0.50000000       0.16665799       0.11282750 </v>
    <v>       0.50000000       0.16665799       0.88717250 </v>
    <v>       0.50000000       0.50001464       0.00000000 </v>
    <v>       0.00000000       0.00000813       0.00000000 </v>
   </varray>
  </structure>
  <varray name="forces" >
   <v>       0.00000000      -0.00005471       0.00861470 </v>
   <v>       0.00000002      -0.00005478      -0.00861483 </v>
   <v>      -0.00000005       0.00007488       0.00860289 </v>
   <v>      -0.00000010       0.00007485      -0.00860306 </v>
   <v>       0.00000013      -0.00020369       0.00000021 </v>
   <v>      -0.00000000       0.00016346       0.00000008 </v>
  </varray>
  <varray name="stress" >
   <v>      -1.16206146      -0.00000045      -0.00000005 </v>
   <v>      -0.00000029      -1.07041634      -0.00000096 </v>
   <v>      -0.00000009      -0.00000094      -0.70576620 </v>
  </varray>
  <energy>
   <i name="e_fr_energy">    -36.06055735 </i>
   <i name="e_wo_entrp">    -36.05983068 </i>
   <i name="e_0_energy">     -0.00145335 </i>
  </energy>
  <time name="totalsc">   81.58   81.71</time>
 </calculation>
 <calculation>
  <scstep>
   <time name="dav">    3.09    3.09</time>
   <time name="total">    3.23    3.24</time>
   <energy>
    <i name="alphaZ">     25.36157480 </i>
    <i name="ewald">   1694.69897995 </i>
    <i name="hartreedc">  -2993.54904500 </i>
    <i name="XCdc">   -232.33858101 </i>
    <i name="pawpsdc">   2731.95217773 </i>
    <i name="pawaedc">  -2438.18454013 </i>
    <i name="eentropy">     -0.00145373 </i>
    <i name="bandstr">   -152.10422402 </i>
    <i name="atom">   1328.10454569 </i>
    <i name="e_fr_energy">    -36.06056571 </i>
    <i name="e_wo_entrp">    -36.05911198 </i>
    <i name="e_0_energy">    -36.05983884 </i>
   </energy>
  </scstep>
  <scstep>
   <time name="dav">    3.28    3.28</time>
   <time name="total">    3.48    3.48</time>
   <energy>
    <i name="e_fr_energy">    -36.06056615 </i>
    <i name="e_wo_entrp">    -36.05911223 </i>
    <i name="e_0_energy">    -36.05983919 </i>
   </energy>
  </scstep>
  <scstep>
   <time name="dav">    2.52    2.52</time>
   <time name="total">    2.61    2.63</time>
   <energy>
    <i name="alphaZ">     25.36157480 </i>
    <i name="ewald">   1694.69897995 </i>
    <i name="hartreedc">  -2993.54900934 </i>
    <i name="XCdc">   -232.33828409 </i>
    <i name="pawpsdc">   2731.29969973 </i>
    <i name="pawaedc">  -2437.53099809 </i>
    <i name="eentropy">     -0.00145384 </i>
    <i name="bandstr">   -152.10562058 </i>
    <i name="atom">   1328.10454569 </i>
    <i name="e_fr_energy">    -36.06056576 </i>
    <i name="e_wo_entrp">    -36.05911192 </i>
    <i name="e_0_energy">    -36.05983884 </i>
   </energy>
  </scstep>
  <structure>
   <crystal>
    <varray name="basis" >
     <v>       3.55100000       0.00000000       0.00000000 </v>
     <v>       0.00000000       6.14900000       0.00000000 </v>
     <v>       0.00000000       0.00000000      16.00000000 </v>
    </varray>
    <i name="volume">    349.36158400 </i>
    <varray name="rec_basis" >
     <v>       0.28161081       0.00000000       0.00000000 </v>
     <v>       0.00000000       0.16262807       0.00000000 </v>
     <v>       0.00000000       0.00000000       0.06250000 </v>
    </varray>
   </crystal>
   <varray name="positions" >
    <v>       0.00000000       0.66665919       0.11285472 </v>
    <v>       0.00000000       0.66665919       0.88714527 </v>
    <v>       0.50000000       0.16665858       0.11285344 </v>
    <v>       0.50000000       0.16665858       0.88714656 </v>
    <v>       0.50000000       0.50001304       0.00000000 </v>
    <v>      -0.00000000       0.00000941       0.00000000 </v>
   </varray>
  </structure>
  <varray name="forces" >
   <v>      -0.00000003      -0.00003655       0.00284097 </v>
   <v>       0.00000004      -0.00003673      -0.00284073 </v>
   <v>       0.00000005       0.00003457       0.00295018 </v>
   <v>       0.00000001       0.00003475      -0.00295003 </v>
   <v>      -0.00000008      -0.00004745      -0.00000018 </v>
   <v>       0.00000001       0.00005141      -0.00000021 </v>
  </varray>
  <varray name="stress" >
   <v>      -1.24110004       0.00000109      -0.00000036 </v>
   <v>       0.00000092      -1.14933144      -0.00000011 </v>
   <v>      -0.00000027      -0.00000005      -0.89584865 </v>
  </varray>
  <energy>
   <i name="e_fr_energy">    -36.06056576 </i>
   <i name="e_wo_entrp">    -36.05983884 </i>
   <i name="e_0_energy">     -0.00145384 </i>
  </energy>
  <time name="totalsc">   11.07   11.10</time>
 </calculation>
 <calculation>
  <scstep>
   <time name="dav">    3.10    3.10</time>
   <time name="total">    3.24    3.24</time>
   <energy>
    <i name="alphaZ">     25.36157480 </i>
    <i name="ewald">   1694.38260910 </i>
    <i name="hartreedc">  -2993.24430689 </i>
    <i name="XCdc">   -232.33984471 </i>
    <i name="pawpsdc">   2731.11952708 </i>
    <i name="pawaedc">  -2437.35021890 </i>
    <i name="eentropy">     -0.00145407 </i>
    <i name="bandstr">   -152.09299806 </i>
    <i name="atom">   1328.10454569 </i>
    <i name="e_fr_energy">    -36.06056596 </i>
    <i name="e_wo_entrp">    -36.05911189 </i>
    <i name="e_0_energy">    -36.05983892 </i>
   </energy>
  </scstep>
  <scstep>
   <time name="dav">    3.15    3.15</time>
   <time name="total">    3.24    3.24</time>
   <energy>
    <i name="alphaZ">     25.36157480 </i>
    <i name="ewald">   1694.38260910 </i>
    <i name="hartreedc">  -2993.24603222 </i>
    <i name="XCdc">   -232.33975745 </i>
    <i name="pawpsdc">   2730.81778822 </i>
    <i name="pawaedc">  -2437.04807744 </i>
    <i name="eentropy">     -0.00145409 </i>
    <i name="bandstr">   -152.09176257 </i>
    <i name="atom">   1328.10454569 </i>
    <i name="e_fr_energy">    -36.06056594 </i>
    <i name="e_wo_entrp">    -36.05911185 </i>
    <i name="e_0_energy">    -36.05983890 </i>
   </energy>
  </scstep>
  <structure>
   <crystal>
    <varray name="basis" >
     <v>       3.55100000       0.00000000       0.00000000 </v>
     <v>       0.00000000       6.14900000       0.00000000 </v>
     <v>       0.00000000       0.00000000      16.00000000 </v>
    </varray>
    <i name="volume">    349.36158400 </i>
    <varray name="rec_basis" >
     <v>       0.28161081       0.00000000       0.00000000 </v>
     <v>       0.00000000       0.16262807       0.00000000 </v>
     <v>       0.00000000       0.00000000       0.06250000 </v>
    </varray>
   </crystal>
   <varray name="positions" >
    <v>       0.00000000       0.66665897       0.11286789 </v>
    <v>       0.00000000       0.66665897       0.88713211 </v>
    <v>       0.50000000       0.16665888       0.11286658 </v>
    <v>       0.50000000       0.16665888       0.88713342 </v>
    <v>       0.50000000       0.50001223       0.00000000 </v>
    <v>      -0.00000000       0.00001006       0.00000000 </v>
   </varray>
  </structure>
  <varray name="forces" >
   <v>       0.00000007      -0.00011829       0.00006469 </v>
   <v>       0.00000005      -0.00011845      -0.00006413 </v>
   <v>       0.00000005       0.00011285       0.00033147 </v>
   <v>       0.00000005       0.00011299      -0.00033111 </v>
   <v>      -0.00000020       0.00001845      -0.00000068 </v>
   <v>      -0.00000001      -0.00000755      -0.00000023 </v>
  </varray>
  <varray name="stress" >
   <v>      -1.27239235       0.00000064       0.00000046 </v>
   <v>       0.00000069      -1.18051365      -0.00000083 </v>
   <v>       0.00000043      -0.00000064      -0.99012012 </v>
  </varray>
  <energy>
   <i name="e_fr_energy">    -36.06056594 </i>
   <i name="e_wo_entrp">    -36.05983890 </i>
   <i name="e_0_energy">     -0.00145409 </i>
  </energy>
  <time name="totalsc">    7.97    7.98</time>
  <eigenvalues>
   <array>
    <dimension dim="1">band</dimension>
    <dimension dim="2">kpoint</dimension>
    <dimension dim="3">spin</dimension>
    <field>eigene</field>
    <field>occ</field>
    <set>
     <set comment="spin 1">
      <set comment="kpoint 1">
       <r>  -12.4655    1.0000 </r>
       <r>  -11.5674    1.0000 </r>
       <r>  -10.5655    1.0000 </r>
       <r>  -10.2340    1.0000 </r>
       <r>   -5.2603    1.0000 </r>
       <r>   -4.8248    1.0000 </r>
       <r>   -4.4262    1.0000 </r>
       <r>   -3.2199    1.0000 </r>
       <r>   -2.2223    1.0000 </r>
       <r>   -1.6429    1.0000 </r>
       <r>   -1.6088    1.0000 </r>
       <r>   -1.5752    1.0000 </r>
       <r>   -1.5286    1.0000 </r>
       <r>   -0.8270    1.0000 </r>
       <r>   -0.7970    1.0000 </r>
       <r>   -0.7293    1.0000 </r>
       <r>   -0.3895    1.0000 </r>
       <r>   -0.2219    1.0000 </r>
       <r>    1.4524    0.0000 </r>
       <r>    1.7799    0.0000 </r>
       <r>    3.1033    0.0000 </r>
       <r>    3.1666    0.0000 </r>
       <r>    3.3374    0.0000 </r>
       <r>    3.3643    0.0000 </r>
      </set>
      <set comment="kpoint 2">
       <r>  -12.4041    1.0000 </r>
       <r>  -11.5226    1.0000 </r>
       <r>  -10.5347    1.0000 </r>
       <r>  -10.2093    1.0000 </r>
       <r>   -5.1859    1.0000 </r>
       <r>   -4.7564    1.0000 </r>
       <r>   -4.4087    1.0000 </r>
       <r>   -3.1968    1.0000 </r>
       <r>   -2.3310    1.0000 </r>
       <r>   -1.7722    1.0000 </r>
       <r>   -1.7482    1.0000 </r>
       <r>   -1.5233    1.0000 </r>
       <r>   -1.5122    1.0000 </r>
       <r>   -1.1219    1.0000 </r>
       <r>   -0.9161    1.0000 </r>
       <r>   -0.7229    1.0000 </r>
       <r>   -0.3954    1.0000 </r>
       <r>   -0.1781    0.9999 </r>
       <r>    1.4788    0.0000 </r>
       <r>    1.8173    0.0000 </r>
       <r>    2.8329    0.0000 </r>
       <r>    2.9715    0.0000 </r>
       <r>    3.1847    0.0000 </r>
       <r>    3.2195    0.0000 </r>
      </set>
      <set comment="kpoint 3">
       <r>  -12.2830    1.0000 </r>
       <r>  -11.4343    1.0000 </r>
       <r>  -10.4779    1.0000 </r>
       <r>  -10.1640    1.0000 </r>
       <r>   -5.0397    1.0000 </r>
       <r>   -4.6244    1.0000 </r>
       <r>   -4.3818    1.0000 </r>
       <r>   -3.1614    1.0000 </r>
       <r>   -2.4991    1.0000 </r>
       <r>   -2.0071    1.0000 </r>
       <r>   -1.9704    1.0000 </r>
       <r>   -1.7012    1.0000 </r>
       <r>   -1.5077    1.0000 </r>
       <r>   -1.4269    1.0000 </r>
       <r>   -1.1100    1.0000 </r>
       <r>   -0.6364    1.0000 </r>
       <r>   -0.4191    1.0000 </r>
       <r>   -0.1467    0.9998 </r>
       <r>    1.4616    0.0000 </r>
       <r>    1.9393    0.0000 </r>
       <r>    2.4675    0.0000 </r>
       <r>    2.4899    0.0000 </r>
       <r>    2.6989    0.0000 </r>
       <r>    2.9800    0.0000 </r>
      </set>
      <set comment="kpoint 4">
       <r>  -12.1061    1.0000 </r>
       <r>  -11.3058    1.0000 </r>
       <r>  -10.4053    1.0000 </r>
       <r>  -10.1069    1.0000 </r>
       <r>   -4.8281    1.0000 </r>
       <r>   -4.4400    1.0000 </r>
       <r>   -4.3607    1.0000 </r>
       <r>   -3.1457    1.0000 </r>
       <r>   -2.6694    1.0000 </r>
       <r>   -2.3531    1.0000 </r>
       <r>   -2.3119    1.0000 </r>
       <r>   -2.1952    1.0000 </r>
       <r>   -1.5323    1.0000 </r>
       <r>   -1.4192    1.0000 </r>
       <r>   -1.3055    1.0000 </r>
       <r>   -0.5863    1.0000 </r>
       <r>   -0.4766    1.0000 </r>
       <r>   -0.1003    0.9986 </r>
       <r>    1.3766    0.0000 </r>
       <r>    2.0482    0.0000 </r>
       <r>    2.1410    0.0000 </r>
       <r>    2.1728    0.0000 </r>
       <r>    2.3081    0.0000 </r>
       <r>    2.6241    0.0000 </r>
      </set>
      <set comment="kpoint 5">
       <r>  -11.8799    1.0000 </r>
       <r>  -11.1421    1.0000 </r>
       <r>  -10.3329    1.0000 </r>
       <r>  -10.0510    1.0000 </r>
       <r>   -4.5659    1.0000 </r>
       <r>   -4.3605    1.0000 </r>
       <r>   -4.2250    1.0000 </r>
       <r>   -3.2783    1.0000 </r>
       <r>   -2.7933    1.0000 </r>
       <r>   -2.7416    1.0000 </r>
       <r>   -2.7385    1.0000 </r>
       <r>   -2.4351    1.0000 </r>
       <r>   -1.8162    1.0000 </r>
       <r>   -1.5797    1.0000 </r>
       <r>   -1.2168    1.0000 </r>
       <r>   -0.5980    1.0000 </r>
       <r>   -0.5525    1.0000 </r>
       <r>   -0.0269    0.9774 </r>
       <r>    1.2582    0.0000 </r>
       <r>    1.7103    0.0000 </r>
       <r>    2.0239    0.0000 </r>
       <r>    2.0620    0.0000 </r>
       <r>    2.2570    0.0000 </r>
       <r>    2.3626    0.0000 </r>
      </set>
      <set comment="kpoint 6">
       <r>  -11.6139    1.0000 </r>
       <r>  -10.9509    1.0000 </r>
       <r>  -10.2835    1.0000 </r>
       <r>  -10.0138    1.0000 </r>
       <r>   -4.3774    1.0000 </r>
       <r>   -4.3116    1.0000 </r>
       <r>   -4.0320    1.0000 </r>
       <r>   -3.6035    1.0000 </r>
       <r>   -3.1007    1.0000 </r>
       <r>   -2.8480    1.0000 </r>
       <r>   -2.8314    1.0000 </r>
       <r>   -2.7198    1.0000 </r>
       <r>   -2.2088    1.0000 </r>
       <r>   -1.6226    1.0000 </r>
       <r>   -1.2857    1.0000 </r>
       <r>   -0.6790    1.0000 </r>
       <r>   -0.5525    1.0000 </r>
       <r>    0.0439    0.7365 </r>
       <r>    1.1618    0.0000 </r>
       <r>    1.4706    0.0000 </r>
       <r>    1.9549    0.0000 </r>
       <r>    1.9743    0.0000 </r>
       <r>    2.0105    0.0000 </r>
       <r>    2.5253    0.0000 </r>
      </set>
      <set comment="kpoint 7">
       <r>  -11.3220    1.0000 </r>
       <r>  -10.7428    1.0000 </r>
       <r>  -10.2837    1.0000 </r>
       <r>  -10.0140    1.0000 </r>
       <r>   -4.3772    1.0000 </r>
       <r>   -4.3113    1.0000 </r>
       <r>   -4.0066    1.0000 </r>
       <r>   -3.6036    1.0000 </r>
       <r>   -3.2711    1.0000 </r>
       <r>   -3.0980    1.0000 </r>
       <r>   -2.8479    1.0000 </r>
       <r>   -2.8314    1.0000 </r>
       <r>   -2.4815    1.0000 </r>
       <r>   -1.6228    1.0000 </r>
       <r>   -1.5455    1.0000 </r>
       <r>   -0.8223    1.0000 </r>
       <r>   -0.4630    1.0000 </r>
       <r>    0.0440    0.7354 </r>
       <r>    1.1616    0.0000 </r>
       <r>    1.3311    0.0000 </r>
       <r>    1.8215    0.0000 </r>
       <r>    1.9550    0.0000 </r>
       <r>    2.0749    0.0000 </r>
       <r>    2.5250    0.0000 </r>
      </set>
      <set comment="kpoint 8">
       <r>  -11.0239    1.0000 </r>
       <r>  -10.5324    1.0000 </r>
       <r>  -10.3574    1.0000 </r>
       <r>  -10.0666    1.0000 </r>
       <r>   -4.4722    1.0000 </r>
       <r>   -4.3123    1.0000 </r>
       <r>   -4.2058    1.0000 </r>
       <r>   -3.5121    1.0000 </r>
       <r>   -3.2748    1.0000 </r>
       <r>   -3.1869    1.0000 </r>
       <r>   -2.8231    1.0000 </r>
       <r>   -2.8228    1.0000 </r>
       <r>   -2.6390    1.0000 </r>
       <r>   -1.9100    1.0000 </r>
       <r>   -1.5515    1.0000 </r>
       <r>   -1.0099    1.0000 </r>
       <r>   -0.3757    1.0000 </r>
       <r>   -0.0527    0.9915 </r>
       <r>    1.2768    0.0000 </r>
       <r>    1.3541    0.0000 </r>
       <r>    1.7454    0.0000 </r>
       <r>    2.0195    0.0000 </r>
       <r>    2.1431    0.0000 </r>
       <r>    2.3117    0.0000 </r>
      </set>
      <set comment="kpoint 9">
       <r>  -10.7450    1.0000 </r>
       <r>  -10.5145    1.0000 </r>
       <r>  -10.3373    1.0000 </r>
       <r>  -10.1767    1.0000 </r>
       <r>   -4.5176    1.0000 </r>
       <r>   -4.4154    1.0000 </r>
       <r>   -4.1487    1.0000 </r>
       <r>   -3.8767    1.0000 </r>
       <r>   -3.0555    1.0000 </r>
       <r>   -3.0135    1.0000 </r>
       <r>   -2.7869    1.0000 </r>
       <r>   -2.7317    1.0000 </r>
       <r>   -2.7045    1.0000 </r>
       <r>   -2.3213    1.0000 </r>
       <r>   -1.4076    1.0000 </r>
       <r>   -1.2157    1.0000 </r>
       <r>   -0.2963    1.0000 </r>
       <r>   -0.1865    1.0000 </r>
       <r>    1.4299    0.0000 </r>
       <r>    1.4874    0.0000 </r>
       <r>    1.7345    0.0000 </r>
       <r>    1.9832    0.0000 </r>
       <r>    2.1022    0.0000 </r>
       <r>    2.1553    0.0000 </r>
      </set>
      <set comment="kpoint 10">
       <r>  -10.7450    1.0000 </r>
       <r>  -10.5145    1.0000 </r>
       <r>  -10.3373    1.0000 </r>
       <r>  -10.1767    1.0000 </r>
       <r>   -4.5176    1.0000 </r>
       <r>   -4.4154    1.0000 </r>
       <r>   -4.1487    1.0000 </r>
       <r>   -3.8767    1.0000 </r>
       <r>   -3.0555    1.0000 </r>
       <r>   -3.0135    1.0000 </r>
       <r>   -2.7869    1.0000 </r>
       <r>   -2.7317    1.0000 </r>
       <r>   -2.7045    1.0000 </r>
       <r>   -2.3213    1.0000 </r>
       <r>   -1.4076    1.0000 </r>
       <r>   -1.2157    1.0000 </r>
       <r>   -0.2963    1.0000 </r>
       <r>   -0.1865    1.0000 </r>
       <r>    1.4299    0.0000 </r>
       <r>    1.4874    0.0000 </r>
       <r>    1.7345    0.0000 </r>
       <r>    1.9832    0.0000 </r>
       <r>    2.1022    0.0000 </r>
       <r>    2.1553    0.0000 </r>
      </set>
      <set comment="kpoint 11">
       <r>  -11.0239    1.0000 </r>
       <r>  -10.5324    1.0000 </r>
       <r>  -10.3574    1.0000 </r>
       <r>  -10.0666    1.0000 </r>
       <r>   -4.4722    1.0000 </r>
       <r>   -4.3123    1.0000 </r>
       <r>   -4.2058    1.0000 </r>
       <r>   -3.5121    1.0000 </r>
       <r>   -3.2748    1.0000 </r>
       <r>   -3.1869    1.0000 </r>
       <r>   -2.8231    1.0000 </r>
       <r>   -2.8228    1.0000 </r>
       <r>   -2.6390    1.0000 </r>
       <r>   -1.9100    1.0000 </r>
       <r>   -1.5515    1.0000 </r>
       <r>   -1.0099    1.0000 </r>
       <r>   -0.3757    1.0000 </r>
       <r>   -0.0527    0.9915 </r>
       <r>    1.2768    0.0000 </r>
       <r>    1.3541    0.0000 </r>
       <r>    1.7454    0.0000 </r>
       <r>    2.0195    0.0000 </r>
       <r>    2.1431    0.0000 </r>
       <r>    2.3117    0.0000 </r>
      </set>
      <set comment="kpoint 12">
       <r>  -11.3220    1.0000 </r>
       <r>  -10.7428    1.0000 </r>
       <r>  -10.2837    1.0000 </r>
       <r>  -10.0140    1.0000 </r>
       <r>   -4.3772    1.0000 </r>
       <r>   -4.3113    1.0000 </r>
       <r>   -4.0066    1.0000 </r>
       <r>   -3.6036    1.0000 </r>
       <r>   -3.2711    1.0000 </r>
       <r>   -3.0980    1.0000 </r>
       <r>   -2.8479    1.0000 </r>
       <r>   -2.8314    1.0000 </r>
       <r>   -2.4815    1.0000 </r>
       <r>   -1.6228    1.0000 </r>
       <r>   -1.5455    1.0000 </r>
       <r>   -0.8223    1.0000 </r>
       <r>   -0.4630    1.0000 </r>
       <r>    0.0440    0.7354 </r>
       <r>    1.1616    0.0000 </r>
       <r>    1.3311    0.0000 </r>
       <r>    1.8215    0.0000 </r>
       <r>    1.9550    0.0000 </r>
       <r>    2.0749    0.0000 </r>
       <r>    2.5250    0.0000 </r>
      </set>
      <set comment="kpoint 13">
       <r>  -11.6139    1.0000 </r>
       <r>  -10.9509    1.0000 </r>
       <r>  -10.2835    1.0000 </r>
       <r>  -10.0138    1.0000 </r>
       <r>   -4.3774    1.0000 </r>
       <r>   -4.3116    1.0000 </r>
       <r>   -4.0320    1.0000 </r>
       <r>   -3.6035    1.0000 </r>
       <r>   -3.1007    1.0000 </r>
       <r>   -2.8480    1.0000 </r>
       <r>   -2.8314    1.0000 </r>
       <r>   -2.7198    1.0000 </r>
       <r>   -2.2088    1.0000 </r>
       <r>   -1.6226    1.0000 </r>
       <r>   -1.2857    1.0000 </r>
       <r>   -0.6790    1.0000 </r>
       <r>   -0.5525    1.0000 </r>
       <r>    0.0439    0.7365 </r>
       <r>    1.1618    0.0000 </r>
       <r>    1.4706    0.0000 </r>
       <r>    1.9549    0.0000 </r>
       <r>    1.9743    0.0000 </r>
       <r>    2.0105    0.0000 </r>
       <r>    2.5253    0.0000 </r>
      </set>
      <set comment="kpoint 14">
       <r>  -11.8799    1.0000 </r>
       <r>  -11.1421    1.0000 </r>
       <r>  -10.3329    1.0000 </r>
       <r>  -10.0510    1.0000 </r>
       <r>   -4.5659    1.0000 </r>
       <r>   -4.3605    1.0000 </r>
       <r>   -4.2250    1.0000 </r>
       <r>   -3.2783    1.0000 </r>
       <r>   -2.7933    1.0000 </r>
       <r>   -2.7416    1.0000 </r>
       <r>   -2.7385    1.0000 </r>
       <r>   -2.4351    1.0000 </r>
       <r>   -1.8162    1.0000 </r>
       <r>   -1.5797    1.0000 </r>
       <r>   -1.2168    1.0000 </r>
       <r>   -0.5980    1.0000 </r>
       <r>   -0.5525    1.0000 </r>
       <r>   -0.0269    0.9774 </r>
       <r>    1.2582    0.0000 </r>
       <r>    1.7103    0.0000 </r>
       <r>    2.0239    0.0000 </r>
       <r>    2.0620    0.0000 </r>
       <r>    2.2570    0.0000 </r>
       <r>    2.3626    0.0000 </r>
      </set>
      <set comment="kpoint 15">
       <r>  -12.1061    1.0000 </r>
       <r>  -11.3058    1.0000 </r>
       <r>  -10.4053    1.0000 </r>
       <r>  -10.1069    1.0000 </r>
       <r>   -4.8281    1.0000 </r>
       <r>   -4.4400    1.0000 </r>
       <r>   -4.3607    1.0000 </r>
       <r>   -3.1457    1.0000 </r>
       <r>   -2.6694    1.0000 </r>
       <r>   -2.3531    1.0000 </r>
       <r>   -2.3119    1.0000 </r>
       <r>   -2.1952    1.0000 </r>
       <r>   -1.5323    1.0000 </r>
       <r>   -1.4192    1.0000 </r>
       <r>   -1.3055    1.0000 </r>
       <r>   -0.5863    1.0000 </r>
       <r>   -0.4766    1.0000 </r>
       <r>   -0.1003    0.9986 </r>
       <r>    1.3766    0.0000 </r>
       <r>    2.0482    0.0000 </r>
       <r>    2.1410    0.0000 </r>
       <r>    2.1728    0.0000 </r>
       <r>    2.3081    0.0000 </r>
       <r>    2.6241    0.0000 </r>
      </set>
      <set comment="kpoint 16">
       <r>  -12.2830    1.0000 </r>
       <r>  -11.4343    1.0000 </r>
       <r>  -10.4779    1.0000 </r>
       <r>  -10.1640    1.0000 </r>
       <r>   -5.0397    1.0000 </r>
       <r>   -4.6244    1.0000 </r>
       <r>   -4.3818    1.0000 </r>
       <r>   -3.1614    1.0000 </r>
       <r>   -2.4991    1.0000 </r>
       <r>   -2.0071    1.0000 </r>
       <r>   -1.9704    1.0000 </r>
       <r>   -1.7012    1.0000 </r>
       <r>   -1.5077    1.0000 </r>
       <r>   -1.4269    1.0000 </r>
       <r>   -1.1100    1.0000 </r>
       <r>   -0.6364    1.0000 </r>
       <r>   -0.4191    1.0000 </r>
       <r>   -0.1467    0.9998 </r>
       <r>    1.4616    0.0000 </r>
       <r>    1.9393    0.0000 </r>
       <r>    2.4675    0.0000 </r>
       <r>    2.4899    0.0000 </r>
       <r>    2.6989    0.0000 </r>
       <r>    2.9800    0.0000 </r>
      </set>
      <set comment="kpoint 17">
       <r>  -12.4041    1.0000 </r>
       <r>  -11.5226    1.0000 </r>
       <r>  -10.5347    1.0000 </r>
       <r>  -10.2093    1.0000 </r>
       <r>   -5.1859    1.0000 </r>
       <r>   -4.7564    1.0000 </r>
       <r>   -4.4087    1.0000 </r>
       <r>   -3.1968    1.0000 </r>
       <r>   -2.3310    1.0000 </r>
       <r>   -1.7722    1.0000 </r>
       <r>   -1.7482    1.0000 </r>
       <r>   -1.5233    1.0000 </r>
       <r>   -1.5122    1.0000 </r>
       <r>   -1.1219    1.0000 </r>
       <r>   -0.9161    1.0000 </r>
       <r>   -0.7229    1.0000 </r>
       <r>   -0.3954    1.0000 </r>
       <r>   -0.1781    0.9999 </r>
       <r>    1.4788    0.0000 </r>
       <r>    1.8173    0.0000 </r>
       <r>    2.8329    0.0000 </r>
       <r>    2.9715    0.0000 </r>
       <r>    3.2162    0.0000 </r>
       <r>    3.2441    0.0000 </r>
      </set>
      <set comment="kpoint 18">
       <r>  -12.4655    1.0000 </r>
       <r>  -11.5674    1.0000 </r>
       <r>  -10.5655    1.0000 </r>
       <r>  -10.2340    1.0000 </r>
       <r>   -5.2603    1.0000 </r>
       <r>   -4.8248    1.0000 </r>
       <r>   -4.4262    1.0000 </r>
       <r>   -3.2199    1.0000 </r>
       <r>   -2.2223    1.0000 </r>
       <r>   -1.6429    1.0000 </r>
       <r>   -1.6088    1.0000 </r>
       <r>   -1.5752    1.0000 </r>
       <r>   -1.5286    1.0000 </r>
       <r>   -0.8270    1.0000 </r>
       <r>   -0.7970    1.0000 </r>
       <r>   -0.7293    1.0000 </r>
       <r>   -0.3895    1.0000 </r>
       <r>   -0.2219    1.0000 </r>
       <r>    1.4524    0.0000 </r>
       <r>    1.7799    0.0000 </r>
       <r>    3.1033    0.0000 </r>
       <r>    3.1666    0.0000 </r>
       <r>    3.3375    0.0000 </r>
       <r>    3.3742    0.0000 </r>
      </set>
      <set comment="kpoint 19">
       <r>  -12.4450    1.0000 </r>
       <r>  -11.5524    1.0000 </r>
       <r>  -10.6105    1.0000 </r>
       <r>  -10.2631    1.0000 </r>
       <r>   -5.1924    1.0000 </r>
       <r>   -4.8018    1.0000 </r>
       <r>   -4.3693    1.0000 </r>
       <r>   -3.2274    1.0000 </r>
       <r>   -2.2074    1.0000 </r>
       <r>   -1.6893    1.0000 </r>
       <r>   -1.6549    1.0000 </r>
       <r>   -1.5589    1.0000 </r>
       <r>   -1.5184    1.0000 </r>
       <r>   -0.8577    1.0000 </r>
       <r>   -0.7672    1.0000 </r>
       <r>   -0.7596    1.0000 </r>
       <r>   -0.3910    1.0000 </r>
       <r>   -0.2458    1.0000 </r>
       <r>    1.4697    0.0000 </r>
       <r>    1.7523    0.0000 </r>
       <r>    3.0052    0.0000 </r>
       <r>    3.1838    0.0000 </r>
       <r>    3.2013    0.0000 </r>
       <r>    3.3111    0.0000 </r>
      </set>
      <set comment="kpoint 20">
       <r>  -12.3837    1.0000 </r>
       <r>  -11.5077    1.0000 </r>
       <r>  -10.5785    1.0000 </r>
       <r>  -10.2378    1.0000 </r>
       <r>   -5.1214    1.0000 </r>
       <r>   -4.7339    1.0000 </r>
       <r>   -4.3527    1.0000 </r>
       <r>   -3.2021    1.0000 </r>
       <r>   -2.3246    1.0000 </r>
       <r>   -1.8109    1.0000 </r>
       <r>   -1.7935    1.0000 </r>
       <r>   -1.5061    1.0000 </r>
       <r>   -1.4923    1.0000 </r>
       <r>   -1.1401    1.0000 </r>
       <r>   -0.9369    1.0000 </r>
       <r>   -0.7135    1.0000 </r>
       <r>   -0.3983    1.0000 </r>
       <r>   -0.2017    1.0000 </r>
       <r>    1.4908    0.0000 </r>
       <r>    1.7813    0.0000 </r>
       <r>    2.7598    0.0000 </r>
       <r>    2.8684    0.0000 </r>
       <r>    3.1289    0.0000 </r>
       <r>    3.2128    0.0000 </r>
      </set>
      <set comment="kpoint 21">
       <r>  -12.2630    1.0000 </r>
       <r>  -11.4198    1.0000 </r>
       <r>  -10.5192    1.0000 </r>
       <r>  -10.1913    1.0000 </r>
       <r>   -4.9833    1.0000 </r>
       <r>   -4.6032    1.0000 </r>
       <r>   -4.3284    1.0000 </r>
       <r>   -3.1608    1.0000 </r>
       <r>   -2.5009    1.0000 </r>
       <r>   -2.0519    1.0000 </r>
       <r>   -2.0069    1.0000 </r>
       <r>   -1.7064    1.0000 </r>
       <r>   -1.4783    1.0000 </r>
       <r>   -1.4075    1.0000 </r>
       <r>   -1.1049    1.0000 </r>
       <r>   -0.6632    1.0000 </r>
       <r>   -0.4253    1.0000 </r>
       <r>   -0.1722    0.9999 </r>
       <r>    1.4798    0.0000 </r>
       <r>    1.8844    0.0000 </r>
       <r>    2.4134    0.0000 </r>
       <r>    2.4333    0.0000 </r>
       <r>    2.6758    0.0000 </r>
       <r>    2.9668    0.0000 </r>
      </set>
      <set comment="kpoint 22">
       <r>  -12.0869    1.0000 </r>
       <r>  -11.2919    1.0000 </r>
       <r>  -10.4426    1.0000 </r>
       <r>  -10.1320    1.0000 </r>
       <r>   -4.7878    1.0000 </r>
       <r>   -4.4213    1.0000 </r>
       <r>   -4.3132    1.0000 </r>
       <r>   -3.1298    1.0000 </r>
       <r>   -2.6741    1.0000 </r>
       <r>   -2.3981    1.0000 </r>
       <r>   -2.3095    1.0000 </r>
       <r>   -2.2393    1.0000 </r>
       <r>   -1.4986    1.0000 </r>
       <r>   -1.3866    1.0000 </r>
       <r>   -1.2810    1.0000 </r>
       <r>   -0.6451    1.0000 </r>
       <r>   -0.4881    1.0000 </r>
       <r>   -0.1305    0.9996 </r>
       <r>    1.4054    0.0000 </r>
       <r>    1.9966    0.0000 </r>
       <r>    2.0698    0.0000 </r>
       <r>    2.1819    0.0000 </r>
       <r>    2.3006    0.0000 </r>
       <r>    2.6330    0.0000 </r>
      </set>
      <set comment="kpoint 23">
       <r>  -11.8617    1.0000 </r>
       <r>  -11.1291    1.0000 </r>
       <r>  -10.3649    1.0000 </r>
       <r>  -10.0730    1.0000 </r>
       <r>   -4.5602    1.0000 </r>
       <r>   -4.3236    1.0000 </r>
       <r>   -4.2114    1.0000 </r>
       <r>   -3.2158    1.0000 </r>
       <r>   -2.7944    1.0000 </r>
       <r>   -2.7874    1.0000 </r>
       <r>   -2.7455    1.0000 </r>
       <r>   -2.4974    1.0000 </r>
       <r>   -1.7571    1.0000 </r>
       <r>   -1.5480    1.0000 </r>
       <r>   -1.1815    1.0000 </r>
       <r>   -0.6726    1.0000 </r>
       <r>   -0.5703    1.0000 </r>
       <r>   -0.0625    0.9942 </r>
       <r>    1.2968    0.0000 </r>
       <r>    1.6867    0.0000 </r>
       <r>    2.0690    0.0000 </r>
       <r>    2.0695    0.0000 </r>
       <r>    2.2747    0.0000 </r>
       <r>    2.2823    0.0000 </r>
      </set>
      <set comment="kpoint 24">
       <r>  -11.5972    1.0000 </r>
       <r>  -10.9392    1.0000 </r>
       <r>  -10.3084    1.0000 </r>
       <r>  -10.0316    1.0000 </r>
       <r>   -4.3838    1.0000 </r>
       <r>   -4.3555    1.0000 </r>
       <r>   -4.0309    1.0000 </r>
       <r>   -3.4702    1.0000 </r>
       <r>   -3.1437    1.0000 </r>
       <r>   -2.8402    1.0000 </r>
       <r>   -2.8326    1.0000 </r>
       <r>   -2.8023    1.0000 </r>
       <r>   -2.1273    1.0000 </r>
       <r>   -1.5978    1.0000 </r>
       <r>   -1.2374    1.0000 </r>
       <r>   -0.7516    1.0000 </r>
       <r>   -0.5685    1.0000 </r>
       <r>    0.0072    0.9201 </r>
       <r>    1.2050    0.0000 </r>
       <r>    1.4756    0.0000 </r>
       <r>    1.9766    0.0000 </r>
       <r>    1.9839    0.0000 </r>
       <r>    2.0785    0.0000 </r>
       <r>    2.4480    0.0000 </r>
      </set>
      <set comment="kpoint 25">
       <r>  -11.3076    1.0000 </r>
       <r>  -10.7331    1.0000 </r>
       <r>  -10.3004    1.0000 </r>
       <r>  -10.0267    1.0000 </r>
       <r>   -4.4249    1.0000 </r>
       <r>   -4.3718    1.0000 </r>
       <r>   -4.0361    1.0000 </r>
       <r>   -3.4566    1.0000 </r>
       <r>   -3.2976    1.0000 </r>
       <r>   -3.1753    1.0000 </r>
       <r>   -2.8291    1.0000 </r>
       <r>   -2.8095    1.0000 </r>
       <r>   -2.4040    1.0000 </r>
       <r>   -1.6080    1.0000 </r>
       <r>   -1.4791    1.0000 </r>
       <r>   -0.8814    1.0000 </r>
       <r>   -0.4691    1.0000 </r>
       <r>    0.0177    0.8848 </r>
       <r>    1.1969    0.0000 </r>
       <r>    1.3505    0.0000 </r>
       <r>    1.8204    0.0000 </r>
       <r>    1.9910    0.0000 </r>
       <r>    2.1524    0.0000 </r>
       <r>    2.4677    0.0000 </r>
      </set>
      <set comment="kpoint 26">
       <r>  -11.0128    1.0000 </r>
       <r>  -10.5254    1.0000 </r>
       <r>  -10.3654    1.0000 </r>
       <r>  -10.0736    1.0000 </r>
       <r>   -4.5598    1.0000 </r>
       <r>   -4.3230    1.0000 </r>
       <r>   -4.2582    1.0000 </r>
       <r>   -3.5705    1.0000 </r>
       <r>   -3.2161    1.0000 </r>
       <r>   -3.2097    1.0000 </r>
       <r>   -2.7939    1.0000 </r>
       <r>   -2.7453    1.0000 </r>
       <r>   -2.5780    1.0000 </r>
       <r>   -1.8143    1.0000 </r>
       <r>   -1.5485    1.0000 </r>
       <r>   -1.0514    1.0000 </r>
       <r>   -0.3731    1.0000 </r>
       <r>   -0.0622    0.9941 </r>
       <r>    1.2962    0.0000 </r>
       <r>    1.3690    0.0000 </r>
       <r>    1.7415    0.0000 </r>
       <r>    2.0692    0.0000 </r>
       <r>    2.2215    0.0000 </r>
       <r>    2.2814    0.0000 </r>
      </set>
      <set comment="kpoint 27">
       <r>  -10.7386    1.0000 </r>
       <r>  -10.5146    1.0000 </r>
       <r>  -10.3340    1.0000 </r>
       <r>  -10.1782    1.0000 </r>
       <r>   -4.5904    1.0000 </r>
       <r>   -4.4787    1.0000 </r>
       <r>   -4.1746    1.0000 </r>
       <r>   -3.9181    1.0000 </r>
       <r>   -3.0935    1.0000 </r>
       <r>   -3.0631    1.0000 </r>
       <r>   -2.7486    1.0000 </r>
       <r>   -2.6837    1.0000 </r>
       <r>   -2.5411    1.0000 </r>
       <r>   -2.1885    1.0000 </r>
       <r>   -1.4175    1.0000 </r>
       <r>   -1.2403    1.0000 </r>
       <r>   -0.2904    1.0000 </r>
       <r>   -0.1843    0.9999 </r>
       <r>    1.4374    0.0000 </r>
       <r>    1.4923    0.0000 </r>
       <r>    1.7321    0.0000 </r>
       <r>    1.9721    0.0000 </r>
       <r>    2.1645    0.0000 </r>
       <r>    2.2280    0.0000 </r>
      </set>
      <set comment="kpoint 28">
       <r>  -10.7386    1.0000 </r>
       <r>  -10.5146    1.0000 </r>
       <r>  -10.3340    1.0000 </r>
       <r>  -10.1782    1.0000 </r>
       <r>   -4.5904    1.0000 </r>
       <r>   -4.4787    1.0000 </r>
       <r>   -4.1746    1.0000 </r>
       <r>   -3.9181    1.0000 </r>
       <r>   -3.0935    1.0000 </r>
       <r>   -3.0631    1.0000 </r>
       <r>   -2.7486    1.0000 </r>
       <r>   -2.6837    1.0000 </r>
       <r>   -2.5411    1.0000 </r>
       <r>   -2.1885    1.0000 </r>
       <r>   -1.4175    1.0000 </r>
       <r>   -1.2403    1.0000 </r>
       <r>   -0.2904    1.0000 </r>
       <r>   -0.1843    0.9999 </r>
       <r>    1.4374    0.0000 </r>
       <r>    1.4923    0.0000 </r>
       <r>    1.7321    0.0000 </r>
       <r>    1.9721    0.0000 </r>
       <r>    2.1645    0.0000 </r>
       <r>    2.2280    0.0000 </r>
      </set>
      <set comment="kpoint 29">
       <r>  -11.0128    1.0000 </r>
       <r>  -10.5254    1.0000 </r>
       <r>  -10.3654    1.0000 </r>
       <r>  -10.0736    1.0000 </r>
       <r>   -4.5598    1.0000 </r>
       <r>   -4.3230    1.0000 </r>
       <r>   -4.2582    1.0000 </r>
       <r>   -3.5705    1.0000 </r>
       <r>   -3.2161    1.0000 </r>
       <r>   -3.2097    1.0000 </r>
       <r>   -2.7939    1.0000 </r>
       <r>   -2.7453    1.0000 </r>
       <r>   -2.5780    1.0000 </r>
       <r>   -1.8143    1.0000 </r>
       <r>   -1.5485    1.0000 </r>
       <r>   -1.0514    1.0000 </r>
       <r>   -0.3731    1.0000 </r>
       <r>   -0.0622    0.9941 </r>
       <r>    1.2962    0.0000 </r>
       <r>    1.3690    0.0000 </r>
       <r>    1.7415    0.0000 </r>
       <r>    2.0692    0.0000 </r>
       <r>    2.2215    0.0000 </r>
       <r>    2.2814    0.0000 </r>
      </set>
      <set comment="kpoint 30">
       <r>  -11.3076    1.0000 </r>
       <r>  -10.7331    1.0000 </r>
       <r>  -10.3004    1.0000 </r>
       <r>  -10.0267    1.0000 </r>
       <r>   -4.4249    1.0000 </r>
       <r>   -4.3718    1.0000 </r>
       <r>   -4.0361    1.0000 </r>
       <r>   -3.4566    1.0000 </r>
       <r>   -3.2976    1.0000 </r>
       <r>   -3.1753    1.0000 </r>
       <r>   -2.8291    1.0000 </r>
       <r>   -2.8095    1.0000 </r>
       <r>   -2.4040    1.0000 </r>
       <r>   -1.6080    1.0000 </r>
       <r>   -1.4791    1.0000 </r>
       <r>   -0.8814    1.0000 </r>
       <r>   -0.4691    1.0000 </r>
       <r>    0.0177    0.8848 </r>
       <r>    1.1969    0.0000 </r>
       <r>    1.3505    0.0000 </r>
       <r>    1.8204    0.0000 </r>
       <r>    1.9910    0.0000 </r>
       <r>    2.1524    0.0000 </r>
       <r>    2.4677    0.0000 </r>
      </set>
      <set comment="kpoint 31">
       <r>  -11.5972    1.0000 </r>
       <r>  -10.9392    1.0000 </r>
       <r>  -10.3084    1.0000 </r>
       <r>  -10.0316    1.0000 </r>
       <r>   -4.3838    1.0000 </r>
       <r>   -4.3555    1.0000 </r>
       <r>   -4.0309    1.0000 </r>
       <r>   -3.4702    1.0000 </r>
       <r>   -3.1437    1.0000 </r>
       <r>   -2.8402    1.0000 </r>
       <r>   -2.8326    1.0000 </r>
       <r>   -2.8023    1.0000 </r>
       <r>   -2.1273    1.0000 </r>
       <r>   -1.5978    1.0000 </r>
       <r>   -1.2374    1.0000 </r>
       <r>   -0.7516    1.0000 </r>
       <r>   -0.5685    1.0000 </r>
       <r>    0.0072    0.9201 </r>
       <r>    1.2050    0.0000 </r>
       <r>    1.4756    0.0000 </r>
       <r>    1.9766    0.0000 </r>
       <r>    1.9839    0.0000 </r>
       <r>    2.0785    0.0000 </r>
       <r>    2.4480    0.0000 </r>
      </set>
      <set comment="kpoint 32">
       <r>  -11.8617    1.0000 </r>
       <r>  -11.1291    1.0000 </r>
       <r>  -10.3649    1.0000 </r>
       <r>  -10.0730    1.0000 </r>
       <r>   -4.5602    1.0000 </r>
       <r>   -4.3236    1.0000 </r>
       <r>   -4.2114    1.0000 </r>
       <r>   -3.2158    1.0000 </r>
       <r>   -2.7944    1.0000 </r>
       <r>   -2.7874    1.0000 </r>
       <r>   -2.7455    1.0000 </r>
       <r>   -2.4974    1.0000 </r>
       <r>   -1.7571    1.0000 </r>
       <r>   -1.5480    1.0000 </r>
       <r>   -1.1815    1.0000 </r>
       <r>   -0.6726    1.0000 </r>
       <r>   -0.5703    1.0000 </r>
       <r>   -0.0625    0.9942 </r>
       <r>    1.2968    0.0000 </r>
       <r>    1.6867    0.0000 </r>
       <r>    2.0690    0.0000 </r>
       <r>    2.0695    0.0000 </r>
       <r>    2.2747    0.0000 </r>
       <r>    2.2823    0.0000 </r>
      </set>
      <set comment="kpoint 33">
       <r>  -12.0869    1.0000 </r>
       <r>  -11.2919    1.0000 </r>
       <r>  -10.4426    1.0000 </r>
       <r>  -10.1320    1.0000 </r>
       <r>   -4.7878    1.0000 </r>
       <r>   -4.4213    1.0000 </r>
       <r>   -4.3132    1.0000 </r>
       <r>   -3.1298    1.0000 </r>
       <r>   -2.6741    1.0000 </r>
       <r>   -2.3981    1.0000 </r>
       <r>   -2.3095    1.0000 </r>
       <r>   -2.2393    1.0000 </r>
       <r>   -1.4986    1.0000 </r>
       <r>   -1.3866    1.0000 </r>
       <r>   -1.2810    1.0000 </r>
       <r>   -0.6451    1.0000 </r>
       <r>   -0.4881    1.0000 </r>
       <r>   -0.1305    0.9996 </r>
       <r>    1.4054    0.0000 </r>
       <r>    1.9966    0.0000 </r>
       <r>    2.0698    0.0000 </r>
       <r>    2.1819    0.0000 </r>
       <r>    2.3006    0.0000 </r>
       <r>    2.6330    0.0000 </r>
      </set>
      <set comment="kpoint 34">
       <r>  -12.2630    1.0000 </r>
       <r>  -11.4198    1.0000 </r>
       <r>  -10.5192    1.0000 </r>
       <r>  -10.1913    1.0000 </r>
       <r>   -4.9833    1.0000 </r>
       <r>   -4.6032    1.0000 </r>
       <r>   -4.3284    1.0000 </r>
       <r>   -3.1608    1.0000 </r>
       <r>   -2.5009    1.0000 </r>
       <r>   -2.0519    1.0000 </r>
       <r>   -2.0069    1.0000 </r>
       <r>   -1.7064    1.0000 </r>
       <r>   -1.4783    1.0000 </r>
       <r>   -1.4075    1.0000 </r>
       <r>   -1.1049    1.0000 </r>
       <r>   -0.6632    1.0000 </r>
       <r>   -0.4253    1.0000 </r>
       <r>   -0.1722    0.9999 </r>
       <r>    1.4798    0.0000 </r>
       <r>    1.8844    0.0000 </r>
       <r>    2.4134    0.0000 </r>
       <r>    2.4333    0.0000 </r>
       <r>    2.6758    0.0000 </r>
       <r>    2.9668    0.0000 </r>
      </set>
      <set comment="kpoint 35">
       <r>  -12.3837    1.0000 </r>
       <r>  -11.5077    1.0000 </r>
       <r>  -10.5785    1.0000 </r>
       <r>  -10.2378    1.0000 </r>
       <r>   -5.1214    1.0000 </r>
       <r>   -4.7339    1.0000 </r>
       <r>   -4.3527    1.0000 </r>
       <r>   -3.2021    1.0000 </r>
       <r>   -2.3246    1.0000 </r>
       <r>   -1.8109    1.0000 </r>
       <r>   -1.7935    1.0000 </r>
       <r>   -1.5061    1.0000 </r>
       <r>   -1.4923    1.0000 </r>
       <r>   -1.1401    1.0000 </r>
       <r>   -0.9369    1.0000 </r>
       <r>   -0.7135    1.0000 </r>
       <r>   -0.3983    1.0000 </r>
       <r>   -0.2017    1.0000 </r>
       <r>    1.4908    0.0000 </r>
       <r>    1.7813    0.0000 </r>
       <r>    2.7598    0.0000 </r>
       <r>    2.8684    0.0000 </r>
       <r>    3.1290    0.0000 </r>
       <r>    3.2252    0.0000 </r>
      </set>
      <set comment="kpoint 36">
       <r>  -12.4450    1.0000 </r>
       <r>  -11.5524    1.0000 </r>
       <r>  -10.6105    1.0000 </r>
       <r>  -10.2631    1.0000 </r>
       <r>   -5.1924    1.0000 </r>
       <r>   -4.8018    1.0000 </r>
       <r>   -4.3693    1.0000 </r>
       <r>   -3.2274    1.0000 </r>
       <r>   -2.2074    1.0000 </r>
       <r>   -1.6893    1.0000 </r>
       <r>   -1.6549    1.0000 </r>
       <r>   -1.5589    1.0000 </r>
       <r>   -1.5184    1.0000 </r>
       <r>   -0.8577    1.0000 </r>
       <r>   -0.7672    1.0000 </r>
       <r>   -0.7596    1.0000 </r>
       <r>   -0.3910    1.0000 </r>
       <r>   -0.2458    1.0000 </r>
       <r>    1.4697    0.0000 </r>
       <r>    1.7523    0.0000 </r>
       <r>    3.0052    0.0000 </r>
       <r>    3.1838    0.0000 </r>
       <r>    3.2013    0.0000 </r>
       <r>    3.3095    0.0000 </r>
      </set>
      <set comment="kpoint 37">
       <r>  -12.4040    1.0000 </r>
       <r>  -11.5225    1.0000 </r>
       <r>  -10.6961    1.0000 </r>
       <r>  -10.3191    1.0000 </r>
       <r>   -5.0623    1.0000 </r>
       <r>   -4.7563    1.0000 </r>
       <r>   -4.2588    1.0000 </r>
       <r>   -3.2443    1.0000 </r>
       <r>   -2.1777    1.0000 </r>
       <r>   -1.7720    1.0000 </r>
       <r>   -1.7467    1.0000 </r>
       <r>   -1.5249    1.0000 </r>
       <r>   -1.4974    1.0000 </r>
       <r>   -0.9173    1.0000 </r>
       <r>   -0.8111    1.0000 </r>
       <r>   -0.7219    1.0000 </r>
       <r>   -0.3953    1.0000 </r>
       <r>   -0.2917    1.0000 </r>
       <r>    1.5035    0.0000 </r>
       <r>    1.7071    0.0000 </r>
       <r>    2.8338    0.0000 </r>
       <r>    2.9731    0.0000 </r>
       <r>    3.2173    0.0000 </r>
       <r>    3.2359    0.0000 </r>
      </set>
      <set comment="kpoint 38">
       <r>  -12.3432    1.0000 </r>
       <r>  -11.4782    1.0000 </r>
       <r>  -10.6618    1.0000 </r>
       <r>  -10.2926    1.0000 </r>
[...]
       <r>    2.2890    0.0000 </r>
      </set>
      <set comment="kpoint 159">
       <r>  -11.4638    1.0000 </r>
       <r>  -11.3215    1.0000 </r>
       <r>  -10.8437    1.0000 </r>
       <r>  -10.7423    1.0000 </r>
       <r>   -4.0069    1.0000 </r>
       <r>   -3.9898    1.0000 </r>
       <r>   -3.2712    1.0000 </r>
       <r>   -3.2377    1.0000 </r>
       <r>   -3.0988    1.0000 </r>
       <r>   -2.9330    1.0000 </r>
       <r>   -2.4815    1.0000 </r>
       <r>   -2.3289    1.0000 </r>
       <r>   -1.5445    1.0000 </r>
       <r>   -1.3748    1.0000 </r>
       <r>   -0.8219    1.0000 </r>
       <r>   -0.7691    1.0000 </r>
       <r>   -0.5173    1.0000 </r>
       <r>   -0.4639    1.0000 </r>
       <r>    1.3307    0.0000 </r>
       <r>    1.3900    0.0000 </r>
       <r>    1.8228    0.0000 </r>
       <r>    1.8861    0.0000 </r>
       <r>    2.0651    0.0000 </r>
       <r>    2.0739    0.0000 </r>
      </set>
      <set comment="kpoint 160">
       <r>  -11.6134    1.0000 </r>
       <r>  -11.4637    1.0000 </r>
       <r>  -10.9504    1.0000 </r>
       <r>  -10.8435    1.0000 </r>
       <r>   -4.0319    1.0000 </r>
       <r>   -3.9897    1.0000 </r>
       <r>   -3.2372    1.0000 </r>
       <r>   -3.1006    1.0000 </r>
       <r>   -2.9324    1.0000 </r>
       <r>   -2.7199    1.0000 </r>
       <r>   -2.3296    1.0000 </r>
       <r>   -2.2093    1.0000 </r>
       <r>   -1.3753    1.0000 </r>
       <r>   -1.2853    1.0000 </r>
       <r>   -0.7692    1.0000 </r>
       <r>   -0.6787    1.0000 </r>
       <r>   -0.5531    1.0000 </r>
       <r>   -0.5173    1.0000 </r>
       <r>    1.3901    0.0000 </r>
       <r>    1.4703    0.0000 </r>
       <r>    1.8856    0.0000 </r>
       <r>    1.9749    0.0000 </r>
       <r>    2.0095    0.0000 </r>
       <r>    2.0651    0.0000 </r>
      </set>
      <set comment="kpoint 161">
       <r>  -11.7179    1.0000 </r>
       <r>  -11.5637    1.0000 </r>
       <r>  -11.0256    1.0000 </r>
       <r>  -10.9154    1.0000 </r>
       <r>   -4.1032    1.0000 </r>
       <r>   -4.0317    1.0000 </r>
       <r>   -3.2162    1.0000 </r>
       <r>   -3.0137    1.0000 </r>
       <r>   -2.9211    1.0000 </r>
       <r>   -2.6938    1.0000 </r>
       <r>   -2.0150    1.0000 </r>
       <r>   -1.9006    1.0000 </r>
       <r>   -1.1501    1.0000 </r>
       <r>   -1.1479    1.0000 </r>
       <r>   -0.8789    1.0000 </r>
       <r>   -0.7659    1.0000 </r>
       <r>   -0.6033    1.0000 </r>
       <r>   -0.6010    1.0000 </r>
       <r>    1.4850    0.0000 </r>
       <r>    1.5650    0.0000 </r>
       <r>    1.9956    0.0000 </r>
       <r>    2.1067    0.0000 </r>
       <r>    2.1242    0.0000 </r>
       <r>    2.1932    0.0000 </r>
      </set>
      <set comment="kpoint 162">
       <r>  -11.7716    1.0000 </r>
       <r>  -11.6152    1.0000 </r>
       <r>  -11.0644    1.0000 </r>
       <r>  -10.9526    1.0000 </r>
       <r>   -4.1483    1.0000 </r>
       <r>   -4.0659    1.0000 </r>
       <r>   -3.2096    1.0000 </r>
       <r>   -2.9781    1.0000 </r>
       <r>   -2.9355    1.0000 </r>
       <r>   -2.7054    1.0000 </r>
       <r>   -1.7222    1.0000 </r>
       <r>   -1.6052    1.0000 </r>
       <r>   -1.0677    1.0000 </r>
       <r>   -1.0391    1.0000 </r>
       <r>   -0.9507    1.0000 </r>
       <r>   -0.9484    1.0000 </r>
       <r>   -0.7152    1.0000 </r>
       <r>   -0.6548    1.0000 </r>
       <r>    1.5391    0.0000 </r>
       <r>    1.6117    0.0000 </r>
       <r>    2.1178    0.0000 </r>
       <r>    2.2197    0.0000 </r>
       <r>    2.2761    0.0000 </r>
       <r>    2.3165    0.0000 </r>
      </set>
     </set>
    </set>
   </array>
  </eigenvalues>
  <separator name="orbital magnetization" >
   <v name="MAGDIPOLOUT">      0.00000000      0.00000000      0.00000000</v>
  </separator>
  <dos>
   <i name="efermi">      0.07046690 </i>
   <total>
    <array>
     <dimension dim="1">gridpoints</dimension>
     <dimension dim="2">spin</dimension>
     <field>energy</field>
     <field>total</field>
     <field>integrated</field>
     <set>
      <set comment="spin 1">
       <r>   -13.2581     0.0000     0.0000 </r>
       <r>   -13.2000     0.0000     0.0000 </r>
       <r>   -13.1419     0.0000     0.0000 </r>
       <r>   -13.0837     0.0000     0.0000 </r>
       <r>   -13.0256     0.0000     0.0000 </r>
       <r>   -12.9675     0.0000     0.0000 </r>
       <r>   -12.9094     0.0000     0.0000 </r>
       <r>   -12.8513     0.0000     0.0000 </r>
       <r>   -12.7931     0.0000     0.0000 </r>
       <r>   -12.7350     0.0000     0.0000 </r>
       <r>   -12.6769     0.0002     0.0000 </r>
       <r>   -12.6188     0.0017     0.0001 </r>
       <r>   -12.5607     0.0160     0.0010 </r>
       <r>   -12.5025     0.1303     0.0086 </r>
       <r>   -12.4444     0.5649     0.0414 </r>
       <r>   -12.3863     1.0035     0.0998 </r>
       <r>   -12.3282     1.0596     0.1614 </r>
       <r>   -12.2701     1.1415     0.2277 </r>
       <r>   -12.2119     1.1688     0.2957 </r>
       <r>   -12.1538     1.0362     0.3560 </r>
       <r>   -12.0957     1.1828     0.4247 </r>
       <r>   -12.0376     1.2965     0.5002 </r>
       <r>   -11.9795     1.1209     0.5654 </r>
       <r>   -11.9213     1.0109     0.6242 </r>
       <r>   -11.8632     1.3612     0.7034 </r>
       <r>   -11.8051     1.3532     0.7821 </r>
       <r>   -11.7470     1.2187     0.8530 </r>
       <r>   -11.6889     1.1558     0.9203 </r>
       <r>   -11.6307     1.1648     0.9880 </r>
       <r>   -11.5726     2.1187     1.1112 </r>
       <r>   -11.5145     2.4907     1.2560 </r>
       <r>   -11.4564     2.7441     1.4155 </r>
       <r>   -11.3983     2.8776     1.5830 </r>
       <r>   -11.3401     2.7476     1.7429 </r>
       <r>   -11.2820     3.4793     1.9452 </r>
       <r>   -11.2239     3.3072     2.1377 </r>
       <r>   -11.1658     2.9761     2.3110 </r>
       <r>   -11.1077     3.3502     2.5058 </r>
       <r>   -11.0495     3.2724     2.6964 </r>
       <r>   -10.9914     3.6770     2.9102 </r>
       <r>   -10.9333     4.0452     3.1457 </r>
       <r>   -10.8752     3.8644     3.3704 </r>
       <r>   -10.8171     3.8160     3.5925 </r>
       <r>   -10.7589     4.0923     3.8304 </r>
       <r>   -10.7008     5.4535     4.1477 </r>
       <r>   -10.6427     5.3394     4.4582 </r>
       <r>   -10.5846     5.8403     4.7979 </r>
       <r>   -10.5265     6.8797     5.1982 </r>
       <r>   -10.4683     6.9878     5.6047 </r>
       <r>   -10.4102     5.6788     5.9352 </r>
       <r>   -10.3521     5.9072     6.2789 </r>
       <r>   -10.2940     6.5752     6.6619 </r>
       <r>   -10.2359     6.2058     7.0228 </r>
       <r>   -10.1777     5.7262     7.3559 </r>
       <r>   -10.1196     4.4251     7.6137 </r>
       <r>   -10.0615     3.4357     7.8138 </r>
       <r>   -10.0034     2.3191     7.9489 </r>
       <r>    -9.9453     0.7494     7.9929 </r>
       <r>    -9.8871     0.1059     7.9992 </r>
       <r>    -9.8290     0.0087     7.9999 </r>
       <r>    -9.7709     0.0000     8.0000 </r>
       <r>    -9.7128     0.0000     8.0000 </r>
       <r>    -9.6547     0.0000     8.0000 </r>
       <r>    -9.5965     0.0000     8.0000 </r>
       <r>    -9.5384     0.0000     8.0000 </r>
       <r>    -9.4803     0.0000     8.0000 </r>
       <r>    -9.4222     0.0000     8.0000 </r>
       <r>    -9.3641     0.0000     8.0000 </r>
       <r>    -9.3059     0.0000     8.0000 </r>
       <r>    -9.2478     0.0000     8.0000 </r>
       <r>    -9.1897     0.0000     8.0000 </r>
       <r>    -9.1316     0.0000     8.0000 </r>
       <r>    -9.0735     0.0000     8.0000 </r>
       <r>    -9.0153     0.0000     8.0000 </r>
       <r>    -8.9572     0.0000     8.0000 </r>
       <r>    -8.8991     0.0000     8.0000 </r>
       <r>    -8.8410     0.0000     8.0000 </r>
       <r>    -8.7829     0.0000     8.0000 </r>
       <r>    -8.7247     0.0000     8.0000 </r>
       <r>    -8.6666     0.0000     8.0000 </r>
       <r>    -8.6085     0.0000     8.0000 </r>
       <r>    -8.5504     0.0000     8.0000 </r>
       <r>    -8.4923     0.0000     8.0000 </r>
       <r>    -8.4341     0.0000     8.0000 </r>
       <r>    -8.3760     0.0000     8.0000 </r>
       <r>    -8.3179     0.0000     8.0000 </r>
       <r>    -8.2598     0.0000     8.0000 </r>
       <r>    -8.2017     0.0000     8.0000 </r>
       <r>    -8.1435     0.0000     8.0000 </r>
       <r>    -8.0854     0.0000     8.0000 </r>
       <r>    -8.0273     0.0000     8.0000 </r>
       <r>    -7.9692     0.0000     8.0000 </r>
       <r>    -7.9111     0.0000     8.0000 </r>
       <r>    -7.8529     0.0000     8.0000 </r>
       <r>    -7.7948     0.0000     8.0000 </r>
       <r>    -7.7367     0.0000     8.0000 </r>
       <r>    -7.6786     0.0000     8.0000 </r>
       <r>    -7.6205     0.0000     8.0000 </r>
       <r>    -7.5623     0.0000     8.0000 </r>
       <r>    -7.5042     0.0000     8.0000 </r>
       <r>    -7.4461     0.0000     8.0000 </r>
       <r>    -7.3880     0.0000     8.0000 </r>
       <r>    -7.3299     0.0000     8.0000 </r>
       <r>    -7.2717     0.0000     8.0000 </r>
       <r>    -7.2136     0.0000     8.0000 </r>
       <r>    -7.1555     0.0000     8.0000 </r>
       <r>    -7.0974     0.0000     8.0000 </r>
       <r>    -7.0393     0.0000     8.0000 </r>
       <r>    -6.9811     0.0000     8.0000 </r>
       <r>    -6.9230     0.0000     8.0000 </r>
       <r>    -6.8649     0.0000     8.0000 </r>
       <r>    -6.8068     0.0000     8.0000 </r>
       <r>    -6.7487     0.0000     8.0000 </r>
       <r>    -6.6905     0.0000     8.0000 </r>
       <r>    -6.6324     0.0000     8.0000 </r>
       <r>    -6.5743     0.0000     8.0000 </r>
       <r>    -6.5162     0.0000     8.0000 </r>
       <r>    -6.4581     0.0000     8.0000 </r>
       <r>    -6.3999     0.0000     8.0000 </r>
       <r>    -6.3418     0.0000     8.0000 </r>
       <r>    -6.2837     0.0000     8.0000 </r>
       <r>    -6.2256     0.0000     8.0000 </r>
       <r>    -6.1675     0.0000     8.0000 </r>
       <r>    -6.1093     0.0000     8.0000 </r>
       <r>    -6.0512     0.0000     8.0000 </r>
       <r>    -5.9931     0.0000     8.0000 </r>
       <r>    -5.9350     0.0000     8.0000 </r>
       <r>    -5.8769     0.0000     8.0000 </r>
       <r>    -5.8187     0.0000     8.0000 </r>
       <r>    -5.7606     0.0000     8.0000 </r>
       <r>    -5.7025     0.0000     8.0000 </r>
       <r>    -5.6444     0.0000     8.0000 </r>
       <r>    -5.5863     0.0000     8.0000 </r>
       <r>    -5.5281     0.0000     8.0000 </r>
       <r>    -5.4700     0.0004     8.0000 </r>
       <r>    -5.4119     0.0036     8.0002 </r>
       <r>    -5.3538     0.0330     8.0022 </r>
       <r>    -5.2957     0.2630     8.0174 </r>
       <r>    -5.2375     1.0174     8.0766 </r>
       <r>    -5.1794     1.4724     8.1621 </r>
       <r>    -5.1213     1.6144     8.2560 </r>
       <r>    -5.0632     1.9459     8.3691 </r>
       <r>    -5.0051     1.8103     8.4744 </r>
       <r>    -4.9469     1.6306     8.5692 </r>
       <r>    -4.8888     1.6194     8.6636 </r>
       <r>    -4.8307     2.8378     8.8287 </r>
       <r>    -4.7726     2.9471     9.0003 </r>
       <r>    -4.7145     2.9786     9.1734 </r>
       <r>    -4.6563     3.0008     9.3482 </r>
       <r>    -4.5982     3.7321     9.5653 </r>
       <r>    -4.5401     4.7465     9.8414 </r>
       <r>    -4.4820     4.4883    10.1027 </r>
       <r>    -4.4239     5.7605    10.4375 </r>
       <r>    -4.3657     8.7016    10.9435 </r>
       <r>    -4.3076     9.2421    11.4810 </r>
       <r>    -4.2495     7.1493    11.8968 </r>
       <r>    -4.1914     6.7765    12.2912 </r>
       <r>    -4.1333     6.0905    12.6461 </r>
       <r>    -4.0751     6.2615    13.0104 </r>
       <r>    -4.0170     6.4073    13.3833 </r>
       <r>    -3.9589     4.0404    13.6187 </r>
       <r>    -3.9008     2.4212    13.7596 </r>
       <r>    -3.8427     2.0153    13.8772 </r>
       <r>    -3.7845     1.0755    13.9400 </r>
       <r>    -3.7264     1.1494    14.0069 </r>
       <r>    -3.6683     1.6068    14.1007 </r>
       <r>    -3.6102     1.6253    14.1951 </r>
       <r>    -3.5521     1.5356    14.2845 </r>
       <r>    -3.4939     1.5148    14.3726 </r>
       <r>    -3.4358     2.2100    14.5012 </r>
       <r>    -3.3777     3.9980    14.7336 </r>
       <r>    -3.3196     6.1077    15.0887 </r>
       <r>    -3.2615     9.4121    15.6358 </r>
       <r>    -3.2033    12.1647    16.3431 </r>
       <r>    -3.1452    11.9573    17.0384 </r>
       <r>    -3.0871     8.4707    17.5313 </r>
       <r>    -3.0290     4.8309    17.8130 </r>
       <r>    -2.9709     2.8854    17.9817 </r>
       <r>    -2.9127     2.5563    18.1309 </r>
       <r>    -2.8546     3.2020    18.3174 </r>
       <r>    -2.7965     5.9215    18.6619 </r>
       <r>    -2.7384     7.4228    19.0934 </r>
       <r>    -2.6803     7.3175    19.5188 </r>
       <r>    -2.6221     5.2190    19.8226 </r>
       <r>    -2.5640     4.9491    20.1107 </r>
       <r>    -2.5059     5.6089    20.4373 </r>
       <r>    -2.4478     5.7476    20.7718 </r>
       <r>    -2.3897     4.6107    21.0399 </r>
       <r>    -2.3315     5.5397    21.3623 </r>
       <r>    -2.2734     7.0746    21.7744 </r>
       <r>    -2.2153     6.5320    22.1542 </r>
       <r>    -2.1572     6.0360    22.5053 </r>
       <r>    -2.0991     4.7167    22.7803 </r>
       <r>    -2.0409     4.5120    23.0430 </r>
       <r>    -1.9828     4.6820    23.3156 </r>
       <r>    -1.9247     3.4867    23.5187 </r>
       <r>    -1.8666     3.3307    23.7126 </r>
       <r>    -1.8085     3.1932    23.8983 </r>
       <r>    -1.7503     3.5881    24.1072 </r>
       <r>    -1.6922     4.5982    24.3749 </r>
       <r>    -1.6341     4.5922    24.6418 </r>
       <r>    -1.5760     5.7872    24.9784 </r>
       <r>    -1.5179     9.0331    25.5036 </r>
       <r>    -1.4597    11.1839    26.1540 </r>
       <r>    -1.4016    10.6539    26.7734 </r>
       <r>    -1.3435     8.8490    27.2881 </r>
       <r>    -1.2854     7.1296    27.7037 </r>
       <r>    -1.2273     8.9199    28.2228 </r>
       <r>    -1.1691     9.0604    28.7500 </r>
       <r>    -1.1110     7.5688    29.1903 </r>
       <r>    -1.0529     6.0725    29.5436 </r>
       <r>    -0.9948     5.8046    29.8819 </r>
       <r>    -0.9367     5.6852    30.2128 </r>
       <r>    -0.8785     5.7607    30.5480 </r>
       <r>    -0.8204     5.0225    30.8406 </r>
       <r>    -0.7623     5.3382    31.1511 </r>
       <r>    -0.7042     6.4116    31.5244 </r>
       <r>    -0.6461     7.2570    31.9465 </r>
       <r>    -0.5879     7.7356    32.3965 </r>
       <r>    -0.5298     7.6897    32.8438 </r>
       <r>    -0.4717     7.2246    33.2645 </r>
       <r>    -0.4136     7.2994    33.6892 </r>
       <r>    -0.3555     7.3101    34.1147 </r>
       <r>    -0.2973     6.2257    34.4771 </r>
       <r>    -0.2392     6.5127    34.8560 </r>
       <r>    -0.1811     6.8196    35.2530 </r>
       <r>    -0.1230     5.3774    35.5660 </r>
       <r>    -0.0649     3.3608    35.7617 </r>
       <r>    -0.0067     2.1877    35.8894 </r>
       <r>     0.0514     1.2980    35.9654 </r>
       <r>     0.1095     0.5005    35.9948 </r>
       <r>     0.1676     0.0770    35.9994 </r>
       <r>     0.2257     0.0063    36.0000 </r>
       <r>     0.2838     0.0000    36.0000 </r>
       <r>     0.3420     0.0000    36.0000 </r>
       <r>     0.4001     0.0000    36.0000 </r>
       <r>     0.4582     0.0000    36.0000 </r>
       <r>     0.5163     0.0000    36.0000 </r>
       <r>     0.5744     0.0000    36.0000 </r>
       <r>     0.6326     0.0000    36.0000 </r>
       <r>     0.6907     0.0000    36.0000 </r>
       <r>     0.7488     0.0000    36.0000 </r>
       <r>     0.8069     0.0000    36.0000 </r>
       <r>     0.8650     0.0000    36.0000 </r>
       <r>     0.9232     0.0001    36.0000 </r>
       <r>     0.9813     0.0009    36.0001 </r>
       <r>     1.0394     0.0084    36.0005 </r>
       <r>     1.0975     0.0750    36.0049 </r>
       <r>     1.1556     0.4497    36.0310 </r>
       <r>     1.2138     1.0224    36.0905 </r>
       <r>     1.2719     1.6695    36.1875 </r>
       <r>     1.3300     3.4526    36.3882 </r>
       <r>     1.3881     6.3175    36.7554 </r>
       <r>     1.4462    10.2929    37.3537 </r>
       <r>     1.5044    15.5604    38.2583 </r>
       <r>     1.5625    11.2963    38.9154 </r>
       <r>     1.6206     5.0695    39.2104 </r>
       <r>     1.6787     5.6066    39.5375 </r>
       <r>     1.7368    10.6244    40.1562 </r>
       <r>     1.7950    10.7502    40.7813 </r>
       <r>     1.8531     7.7988    41.2346 </r>
       <r>     1.9112     5.4531    41.5521 </r>
       <r>     1.9693     6.1039    41.9078 </r>
       <r>     2.0274     7.6193    42.3513 </r>
       <r>     2.0856     8.1437    42.8248 </r>
       <r>     2.1437     9.1113    43.3546 </r>
       <r>     2.2018     9.0551    43.8816 </r>
       <r>     2.2599     8.0504    44.3498 </r>
       <r>     2.3180     8.4079    44.8392 </r>
       <r>     2.3762     5.4933    45.1593 </r>
       <r>     2.4343     4.2804    45.4087 </r>
       <r>     2.4924     5.0434    45.7026 </r>
       <r>     2.5505     3.5714    45.9106 </r>
       <r>     2.6086     3.8238    46.1330 </r>
       <r>     2.6668     4.1761    46.3764 </r>
       <r>     2.7249     2.6824    46.5324 </r>
       <r>     2.7830     2.4546    46.6753 </r>
       <r>     2.8411     2.3999    46.8157 </r>
       <r>     2.8992     2.1548    46.9410 </r>
       <r>     2.9574     2.9685    47.1136 </r>
       <r>     3.0155     2.5926    47.2646 </r>
       <r>     3.0736     1.6673    47.3615 </r>
       <r>     3.1317     1.9492    47.4749 </r>
       <r>     3.1898     2.4871    47.6199 </r>
       <r>     3.2480     2.6044    47.7714 </r>
       <r>     3.3061     1.4886    47.8580 </r>
       <r>     3.3642     1.3683    47.9376 </r>
       <r>     3.4223     0.8550    47.9876 </r>
       <r>     3.4804     0.1873    47.9985 </r>
       <r>     3.5386     0.0216    47.9998 </r>
       <r>     3.5967     0.0000    48.0000 </r>
       <r>     3.6548     0.0000    48.0000 </r>
       <r>     3.7129     0.0000    48.0000 </r>
       <r>     3.7710     0.0000    48.0000 </r>
       <r>     3.8292     0.0000    48.0000 </r>
       <r>     3.8873     0.0000    48.0000 </r>
       <r>     3.9454     0.0000    48.0000 </r>
       <r>     4.0035     0.0000    48.0000 </r>
       <r>     4.0616     0.0000    48.0000 </r>
       <r>     4.1198     0.0000    48.0000 </r>
       <r>     4.1779     0.0000    48.0000 </r>
      </set>
     </set>
    </array>
   </total>
  </dos>
 </calculation>
 <structure name="finalpos" >
  <crystal>
   <varray name="basis" >
    <v>       3.55100000       0.00000000       0.00000000 </v>
    <v>       0.00000000       6.14900000       0.00000000 </v>
    <v>       0.00000000       0.00000000      16.00000000 </v>
   </varray>
   <i name="volume">    349.36158400 </i>
   <varray name="rec_basis" >
    <v>       0.28161081       0.00000000       0.00000000 </v>
    <v>       0.00000000       0.16262807       0.00000000 </v>
    <v>       0.00000000       0.00000000       0.06250000 </v>
   </varray>
  </crystal>
  <varray name="positions" >
   <v>       0.00000000       0.66665897       0.11286789 </v>
   <v>       0.00000000       0.66665897       0.88713211 </v>
   <v>       0.50000000       0.16665888       0.11286658 </v>
   <v>       0.50000000       0.16665888       0.88713342 </v>
   <v>       0.50000000       0.50001223       0.00000000 </v>
   <v>      -0.00000000       0.00001006       0.00000000 </v>
  </varray>
 </structure>
</modeling>
