2D MoTe2 in a box                       
           1
     3.551000    0.000000    0.000000
     0.000000    6.149000    0.000000
     0.000000    0.000000   16.000000
   Te   Mo
   4   2
Direct configuration=     1
   0.00000000  0.66665962  0.11282875
   0.00000000  0.66665962  0.88717125
   0.50000000  0.16665799  0.11282750
   0.50000000  0.16665799  0.88717250
   0.50000000  0.50001464  0.00000000
   0.00000000  0.00000813  0.00000000
Direct configuration=     2
   0.00000000  0.66665919  0.11285472
   0.00000000  0.66665919  0.88714527
   0.50000000  0.16665858  0.11285344
   0.50000000  0.16665858  0.88714656
   0.50000000  0.50001304  0.00000000
  -0.00000000  0.00000941  0.00000000
Direct configuration=     3
   0.00000000  0.66665897  0.11286789
   0.00000000  0.66665897  0.88713211
   0.50000000  0.16665888  0.11286658
   0.50000000  0.16665888  0.88713342
   0.50000000  0.50001223  0.00000000
  -0.00000000  0.00001006  0.00000000
