natom:   24
displacements:
- atom:    1
  direction:
    [   1.0000000000000000,  1.0000000000000000,  0.0000000000000000 ]
  displacement:
    [   0.0050009222708049,  0.0086597214990649,  0.0000000000000000 ]
- atom:    1
  direction:
    [  -1.0000000000000000, -1.0000000000000000,  0.0000000000000000 ]
  displacement:
    [  -0.0050009222708049, -0.0086597214990649,  0.0000000000000000 ]
- atom:    1
  direction:
    [   0.0000000000000000,  0.0000000000000000,  1.0000000000000000 ]
  displacement:
    [   0.0000000000000000,  0.0000000000000000,  0.0100000000000000 ]
- atom:    1
  direction:
    [   0.0000000000000000,  0.0000000000000000, -1.0000000000000000 ]
  displacement:
    [   0.0000000000000000,  0.0000000000000000, -0.0100000000000000 ]
- atom:    9
  direction:
    [   1.0000000000000000,  1.0000000000000000,  0.0000000000000000 ]
  displacement:
    [   0.0050009222708049,  0.0086597214990649,  0.0000000000000000 ]
- atom:    9
  direction:
    [  -1.0000000000000000, -1.0000000000000000,  0.0000000000000000 ]
  displacement:
    [  -0.0050009222708049, -0.0086597214990649,  0.0000000000000000 ]
- atom:    9
  direction:
    [   0.0000000000000000,  0.0000000000000000,  1.0000000000000000 ]
  displacement:
    [   0.0000000000000000,  0.0000000000000000,  0.0100000000000000 ]
- atom:    9
  direction:
    [   0.0000000000000000,  0.0000000000000000, -1.0000000000000000 ]
  displacement:
    [   0.0000000000000000,  0.0000000000000000, -0.0100000000000000 ]
- atom:   17
  direction:
    [   1.0000000000000000,  1.0000000000000000,  1.0000000000000000 ]
  displacement:
    [   0.0033197094623839,  0.0057484915472257,  0.0074789286677193 ]
- atom:   17
  direction:
    [  -1.0000000000000000, -1.0000000000000000, -1.0000000000000000 ]
  displacement:
    [  -0.0033197094623839, -0.0057484915472257, -0.0074789286677193 ]
- atom:   21
  direction:
    [   1.0000000000000000,  1.0000000000000000,  1.0000000000000000 ]
  displacement:
    [   0.0033197094623839,  0.0057484915472257,  0.0074789286677193 ]
- atom:   21
  direction:
    [  -1.0000000000000000, -1.0000000000000000, -1.0000000000000000 ]
  displacement:
    [  -0.0033197094623839, -0.0057484915472257, -0.0074789286677193 ]
lattice:
- [     7.102000000000000,     0.000000000000000,     0.000000000000000 ] # a
- [     0.000000000000000,    12.298000000000000,     0.000000000000000 ] # b
- [     0.000000000000000,     0.000000000000000,    16.000000000000000 ] # c
points:
- symbol: Te # 1
  coordinates: [  0.000000000000000,  0.333329809725159,  0.112828750000000 ]
  mass: 127.600000
- symbol: Te # 2
  coordinates: [  0.500000000000000,  0.333329809725159,  0.112828750000000 ]
  mass: 127.600000
- symbol: Te # 3
  coordinates: [  0.000000000000000,  0.833329809725159,  0.112828750000000 ]
  mass: 127.600000
- symbol: Te # 4
  coordinates: [  0.500000000000000,  0.833329809725159,  0.112828750000000 ]
  mass: 127.600000
- symbol: Te # 5
  coordinates: [  0.000000000000000,  0.333329809725159,  0.887171250000000 ]
  mass: 127.600000
- symbol: Te # 6
  coordinates: [  0.500000000000000,  0.333329809725159,  0.887171250000000 ]
  mass: 127.600000
- symbol: Te # 7
  coordinates: [  0.000000000000000,  0.833329809725159,  0.887171250000000 ]
  mass: 127.600000
- symbol: Te # 8
  coordinates: [  0.500000000000000,  0.833329809725159,  0.887171250000000 ]
  mass: 127.600000
- symbol: Te # 9
  coordinates: [  0.250000000000000,  0.083328996584811,  0.112827500000000 ]
  mass: 127.600000
- symbol: Te # 10
  coordinates: [  0.750000000000000,  0.083328996584811,  0.112827500000000 ]
  mass: 127.600000
- symbol: Te # 11
  coordinates: [  0.250000000000000,  0.583328996584811,  0.112827500000000 ]
  mass: 127.600000
- symbol: Te # 12
  coordinates: [  0.750000000000000,  0.583328996584811,  0.112827500000000 ]
  mass: 127.600000
- symbol: Te # 13
  coordinates: [  0.250000000000000,  0.083328996584811,  0.887172500000000 ]
  mass: 127.600000
- symbol: Te # 14
  coordinates: [  0.750000000000000,  0.083328996584811,  0.887172500000000 ]
  mass: 127.600000
- symbol: Te # 15
  coordinates: [  0.250000000000000,  0.583328996584811,  0.887172500000000 ]
  mass: 127.600000
- symbol: Te # 16
  coordinates: [  0.750000000000000,  0.583328996584811,  0.887172500000000 ]
  mass: 127.600000
- symbol: Mo # 17
  coordinates: [  0.250000000000000,  0.250007318263132,  0.000000000000000 ]
  mass: 95.960000
- symbol: Mo # 18
  coordinates: [  0.750000000000000,  0.250007318263132,  0.000000000000000 ]
  mass: 95.960000
- symbol: Mo # 19
  coordinates: [  0.250000000000000,  0.750007318263132,  0.000000000000000 ]
  mass: 95.960000
- symbol: Mo # 20
  coordinates: [  0.750000000000000,  0.750007318263132,  0.000000000000000 ]
  mass: 95.960000
- symbol: Mo # 21
  coordinates: [  0.000000000000000,  0.000004065701740,  0.000000000000000 ]
  mass: 95.960000
- symbol: Mo # 22
  coordinates: [  0.500000000000000,  0.000004065701740,  0.000000000000000 ]
  mass: 95.960000
- symbol: Mo # 23
  coordinates: [  0.000000000000000,  0.500004065701740,  0.000000000000000 ]
  mass: 95.960000
- symbol: Mo # 24
  coordinates: [  0.500000000000000,  0.500004065701740,  0.000000000000000 ]
  mass: 95.960000