  24  24   0   0
  0.5861956E+02  0.6904000E-09  0.1273600E-08  0.1600000E-08  0.5000000E-15
  1.000000000000000E-004
  CAR 
 MoTe2 with Spin orbit Phonon calculatio 
      6.83463993    -13.31907497  301      0.49360384      1.00000000
    -13.319  0.0000E+00  0.0000E+00
    -13.252  0.0000E+00  0.0000E+00
    -13.185  0.0000E+00  0.0000E+00
    -13.118  0.0000E+00  0.0000E+00
    -13.050  0.0000E+00  0.0000E+00
    -12.983  0.0000E+00  0.0000E+00
    -12.916  0.0000E+00  0.0000E+00
    -12.849  0.0000E+00  0.0000E+00
    -12.782  0.0000E+00  0.0000E+00
    -12.714  0.0000E+00  0.0000E+00
    -12.647  0.1339E-11  0.8998E-13
    -12.580  0.1757E-06  0.1180E-07
    -12.513  0.7807E-03  0.5246E-04
    -12.446  0.1467E+00  0.9907E-02
    -12.379  0.1906E+01  0.1380E+00
    -12.311  0.4095E+01  0.4131E+00
    -12.244  0.4429E+01  0.7106E+00
    -12.177  0.4488E+01  0.1012E+01
    -12.110  0.4589E+01  0.1320E+01
    -12.043  0.4598E+01  0.1629E+01
    -11.975  0.4717E+01  0.1946E+01
    -11.908  0.4865E+01  0.2273E+01
    -11.841  0.4925E+01  0.2604E+01
    -11.774  0.5303E+01  0.2960E+01
    -11.707  0.4575E+01  0.3267E+01
    -11.640  0.4596E+01  0.3576E+01
    -11.572  0.5222E+01  0.3927E+01
    -11.505  0.6907E+01  0.4391E+01
    -11.438  0.1268E+02  0.5243E+01
    -11.371  0.1442E+02  0.6212E+01
    -11.304  0.1223E+02  0.7033E+01
    -11.237  0.1186E+02  0.7830E+01
    -11.169  0.1437E+02  0.8795E+01
    -11.102  0.1367E+02  0.9713E+01
    -11.035  0.1236E+02  0.1054E+02
    -10.968  0.1301E+02  0.1142E+02
    -10.901  0.1264E+02  0.1227E+02
    -10.833  0.1300E+02  0.1314E+02
    -10.766  0.1434E+02  0.1410E+02
    -10.699  0.1628E+02  0.1520E+02
    -10.632  0.2117E+02  0.1662E+02
    -10.565  0.2177E+02  0.1808E+02
    -10.498  0.2482E+02  0.1975E+02
    -10.430  0.3168E+02  0.2188E+02
    -10.363  0.3013E+02  0.2390E+02
    -10.296  0.1621E+02  0.2499E+02
    -10.229  0.1474E+02  0.2598E+02
    -10.162  0.1610E+02  0.2706E+02
    -10.094  0.1621E+02  0.2815E+02
    -10.027  0.1413E+02  0.2910E+02
     -9.960  0.1702E+02  0.3024E+02
     -9.893  0.1856E+02  0.3149E+02
     -9.826  0.7105E+01  0.3197E+02
     -9.759  0.4627E+00  0.3200E+02
     -9.691  0.2247E-02  0.3200E+02
     -9.624  0.4753E-06  0.3200E+02
     -9.557  0.3494E-11  0.3200E+02
     -9.490  0.0000E+00  0.3200E+02
     -9.423  0.0000E+00  0.3200E+02
     -9.356  0.0000E+00  0.3200E+02
     -9.288  0.0000E+00  0.3200E+02
     -9.221  0.0000E+00  0.3200E+02
     -9.154  0.0000E+00  0.3200E+02
     -9.087  0.0000E+00  0.3200E+02
     -9.020  0.0000E+00  0.3200E+02
     -8.952  0.0000E+00  0.3200E+02
     -8.885  0.0000E+00  0.3200E+02
     -8.818  0.0000E+00  0.3200E+02
     -8.751  0.0000E+00  0.3200E+02
     -8.684  0.0000E+00  0.3200E+02
     -8.617  0.0000E+00  0.3200E+02
     -8.549  0.0000E+00  0.3200E+02
     -8.482  0.0000E+00  0.3200E+02
     -8.415  0.0000E+00  0.3200E+02
     -8.348  0.0000E+00  0.3200E+02
     -8.281  0.0000E+00  0.3200E+02
     -8.213  0.0000E+00  0.3200E+02
     -8.146  0.0000E+00  0.3200E+02
     -8.079  0.0000E+00  0.3200E+02
     -8.012  0.0000E+00  0.3200E+02
     -7.945  0.0000E+00  0.3200E+02
     -7.878  0.0000E+00  0.3200E+02
     -7.810  0.0000E+00  0.3200E+02
     -7.743  0.0000E+00  0.3200E+02
     -7.676  0.0000E+00  0.3200E+02
     -7.609  0.0000E+00  0.3200E+02
     -7.542  0.0000E+00  0.3200E+02
     -7.474  0.0000E+00  0.3200E+02
     -7.407  0.0000E+00  0.3200E+02
     -7.340  0.0000E+00  0.3200E+02
     -7.273  0.0000E+00  0.3200E+02
     -7.206  0.0000E+00  0.3200E+02
     -7.139  0.0000E+00  0.3200E+02
     -7.071  0.0000E+00  0.3200E+02
     -7.004  0.0000E+00  0.3200E+02
     -6.937  0.0000E+00  0.3200E+02
     -6.870  0.0000E+00  0.3200E+02
     -6.803  0.0000E+00  0.3200E+02
     -6.736  0.0000E+00  0.3200E+02
     -6.668  0.0000E+00  0.3200E+02
     -6.601  0.0000E+00  0.3200E+02
     -6.534  0.0000E+00  0.3200E+02
     -6.467  0.0000E+00  0.3200E+02
     -6.400  0.0000E+00  0.3200E+02
     -6.332  0.0000E+00  0.3200E+02
     -6.265  0.0000E+00  0.3200E+02
     -6.198  0.0000E+00  0.3200E+02
     -6.131  0.0000E+00  0.3200E+02
     -6.064  0.0000E+00  0.3200E+02
     -5.997  0.0000E+00  0.3200E+02
     -5.929  0.0000E+00  0.3200E+02
     -5.862  0.0000E+00  0.3200E+02
     -5.795  0.0000E+00  0.3200E+02
     -5.728  0.0000E+00  0.3200E+02
     -5.661  0.0000E+00  0.3200E+02
     -5.593  0.5003E-12  0.3200E+02
     -5.526  0.8912E-07  0.3200E+02
     -5.459  0.5204E-03  0.3200E+02
     -5.392  0.1180E+00  0.3201E+02
     -5.325  0.1655E+01  0.3212E+02
     -5.258  0.4002E+01  0.3239E+02
     -5.190  0.5663E+01  0.3277E+02
     -5.123  0.8138E+01  0.3332E+02
     -5.056  0.7805E+01  0.3384E+02
     -4.989  0.8331E+01  0.3440E+02
     -4.922  0.9171E+01  0.3502E+02
     -4.855  0.7931E+01  0.3555E+02
     -4.787  0.9386E+01  0.3618E+02
     -4.720  0.1055E+02  0.3689E+02
     -4.653  0.9395E+01  0.3752E+02
     -4.586  0.1160E+02  0.3830E+02
     -4.519  0.1461E+02  0.3928E+02
     -4.451  0.1639E+02  0.4038E+02
     -4.384  0.1915E+02  0.4167E+02
     -4.317  0.2731E+02  0.4350E+02
     -4.250  0.3447E+02  0.4582E+02
     -4.183  0.3604E+02  0.4824E+02
     -4.116  0.2764E+02  0.5010E+02
     -4.048  0.2154E+02  0.5154E+02
     -3.981  0.1806E+02  0.5276E+02
     -3.914  0.1715E+02  0.5391E+02
     -3.847  0.1554E+02  0.5495E+02
     -3.780  0.1781E+02  0.5615E+02
     -3.712  0.1237E+02  0.5698E+02
     -3.645  0.1125E+02  0.5773E+02
     -3.578  0.1090E+02  0.5847E+02
     -3.511  0.1287E+02  0.5933E+02
     -3.444  0.1825E+02  0.6056E+02
     -3.377  0.2356E+02  0.6214E+02
     -3.309  0.2852E+02  0.6406E+02
     -3.242  0.2360E+02  0.6564E+02
     -3.175  0.1486E+02  0.6664E+02
     -3.108  0.1312E+02  0.6752E+02
     -3.041  0.1508E+02  0.6853E+02
     -2.974  0.2240E+02  0.7004E+02
     -2.906  0.2871E+02  0.7197E+02
     -2.839  0.1768E+02  0.7316E+02
     -2.772  0.1305E+02  0.7403E+02
     -2.705  0.1947E+02  0.7534E+02
     -2.638  0.2857E+02  0.7726E+02
     -2.570  0.3098E+02  0.7934E+02
     -2.503  0.2747E+02  0.8119E+02
     -2.436  0.2537E+02  0.8289E+02
     -2.369  0.2463E+02  0.8455E+02
     -2.302  0.2483E+02  0.8621E+02
     -2.235  0.2035E+02  0.8758E+02
     -2.167  0.1883E+02  0.8885E+02
     -2.100  0.1858E+02  0.9009E+02
     -2.033  0.2196E+02  0.9157E+02
     -1.966  0.2340E+02  0.9314E+02
     -1.899  0.2086E+02  0.9454E+02
     -1.831  0.2146E+02  0.9598E+02
     -1.764  0.2377E+02  0.9758E+02
     -1.697  0.2332E+02  0.9915E+02
     -1.630  0.2850E+02  0.1011E+03
     -1.563  0.2740E+02  0.1029E+03
     -1.496  0.2476E+02  0.1046E+03
     -1.428  0.2693E+02  0.1064E+03
     -1.361  0.3816E+02  0.1089E+03
     -1.294  0.3287E+02  0.1111E+03
     -1.227  0.2535E+02  0.1129E+03
     -1.160  0.2417E+02  0.1145E+03
     -1.092  0.2199E+02  0.1160E+03
     -1.025  0.2012E+02  0.1173E+03
     -0.958  0.2723E+02  0.1191E+03
     -0.891  0.3470E+02  0.1215E+03
     -0.824  0.3517E+02  0.1238E+03
     -0.757  0.2960E+02  0.1258E+03
     -0.689  0.2677E+02  0.1276E+03
     -0.622  0.2602E+02  0.1294E+03
     -0.555  0.2086E+02  0.1308E+03
     -0.488  0.2226E+02  0.1323E+03
     -0.421  0.2676E+02  0.1341E+03
     -0.354  0.2029E+02  0.1354E+03
     -0.286  0.1663E+02  0.1365E+03
     -0.219  0.1639E+02  0.1376E+03
     -0.152  0.1745E+02  0.1388E+03
     -0.085  0.1653E+02  0.1399E+03
     -0.018  0.1406E+02  0.1409E+03
      0.050  0.1428E+02  0.1418E+03
      0.117  0.1257E+02  0.1427E+03
      0.184  0.5027E+01  0.1430E+03
      0.251  0.2659E+01  0.1432E+03
      0.318  0.2457E+01  0.1433E+03
      0.385  0.2287E+01  0.1435E+03
      0.453  0.3936E+01  0.1438E+03
      0.520  0.5937E+01  0.1442E+03
      0.587  0.7066E+01  0.1446E+03
      0.654  0.8071E+01  0.1452E+03
      0.721  0.8882E+01  0.1458E+03
      0.789  0.1514E+02  0.1468E+03
      0.856  0.1773E+02  0.1480E+03
      0.923  0.1015E+02  0.1487E+03
      0.990  0.7718E+01  0.1492E+03
      1.057  0.8223E+01  0.1497E+03
      1.124  0.7532E+01  0.1502E+03
      1.192  0.9233E+01  0.1509E+03
      1.259  0.9129E+01  0.1515E+03
      1.326  0.1098E+02  0.1522E+03
      1.393  0.1546E+02  0.1533E+03
      1.460  0.2336E+02  0.1548E+03
      1.527  0.2735E+02  0.1567E+03
      1.595  0.3011E+02  0.1587E+03
      1.662  0.1482E+02  0.1597E+03
      1.729  0.3816E+01  0.1599E+03
      1.796  0.9903E+01  0.1606E+03
      1.863  0.3023E+02  0.1626E+03
      1.931  0.3229E+02  0.1648E+03
      1.998  0.2356E+02  0.1664E+03
      2.065  0.2443E+02  0.1680E+03
      2.132  0.2935E+02  0.1700E+03
      2.199  0.2999E+02  0.1720E+03
      2.266  0.2649E+02  0.1738E+03
      2.334  0.2005E+02  0.1751E+03
      2.401  0.2173E+02  0.1766E+03
      2.468  0.3099E+02  0.1787E+03
      2.535  0.3677E+02  0.1812E+03
      2.602  0.3276E+02  0.1834E+03
      2.670  0.1620E+02  0.1844E+03
      2.737  0.1871E+02  0.1857E+03
      2.804  0.2509E+02  0.1874E+03
      2.871  0.2334E+02  0.1890E+03
      2.938  0.1729E+02  0.1901E+03
      3.005  0.1449E+02  0.1911E+03
      3.073  0.1217E+02  0.1919E+03
      3.140  0.1303E+02  0.1928E+03
      3.207  0.1112E+02  0.1935E+03
      3.274  0.1011E+02  0.1942E+03
      3.341  0.1449E+02  0.1952E+03
      3.409  0.1374E+02  0.1961E+03
      3.476  0.1670E+02  0.1972E+03
      3.543  0.1670E+02  0.1983E+03
      3.610  0.2031E+02  0.1997E+03
      3.677  0.2669E+02  0.2015E+03
      3.744  0.3200E+02  0.2037E+03
      3.812  0.2485E+02  0.2053E+03
      3.879  0.1577E+02  0.2064E+03
      3.946  0.1296E+02  0.2073E+03
      4.013  0.8051E+01  0.2078E+03
      4.080  0.2805E+01  0.2080E+03
      4.147  0.3584E+00  0.2080E+03
      4.215  0.1292E+01  0.2081E+03
      4.282  0.3018E+01  0.2083E+03
      4.349  0.3492E+01  0.2085E+03
      4.416  0.3642E+01  0.2088E+03
      4.483  0.3735E+01  0.2090E+03
      4.551  0.3820E+01  0.2093E+03
      4.618  0.3796E+01  0.2095E+03
      4.685  0.3957E+01  0.2098E+03
      4.752  0.3993E+01  0.2101E+03
      4.819  0.4487E+01  0.2104E+03
      4.886  0.6586E+01  0.2108E+03
      4.954  0.9587E+01  0.2115E+03
      5.021  0.1250E+02  0.2123E+03
      5.088  0.1359E+02  0.2132E+03
      5.155  0.1413E+02  0.2142E+03
      5.222  0.1533E+02  0.2152E+03
      5.290  0.1546E+02  0.2162E+03
      5.357  0.1668E+02  0.2174E+03
      5.424  0.1850E+02  0.2186E+03
      5.491  0.1950E+02  0.2199E+03
      5.558  0.1835E+02  0.2211E+03
      5.625  0.1637E+02  0.2222E+03
      5.693  0.1205E+02  0.2230E+03
      5.760  0.8148E+01  0.2236E+03
      5.827  0.4125E+01  0.2239E+03
      5.894  0.1656E+01  0.2240E+03
      5.961  0.2763E+00  0.2240E+03
      6.028  0.9250E-02  0.2240E+03
      6.096  0.4737E-04  0.2240E+03
      6.163  0.1276E-07  0.2240E+03
      6.230  0.1121E-12  0.2240E+03
      6.297  0.0000E+00  0.2240E+03
      6.364  0.0000E+00  0.2240E+03
      6.432  0.0000E+00  0.2240E+03
      6.499  0.0000E+00  0.2240E+03
      6.566  0.0000E+00  0.2240E+03
      6.633  0.0000E+00  0.2240E+03
      6.700  0.0000E+00  0.2240E+03
      6.767  0.0000E+00  0.2240E+03
      6.835  0.0000E+00  0.2240E+03
