   24   24    1    1
  0.5861956E+02  0.6904000E-09  0.1273600E-08  0.1600000E-08  0.5000000E-15
  1.000000000000000E-004
  CAR 
 MoTe2 with Spin orbit Phonon calculatio 
    144    324    224
 
  0.2777778E-01  0.2777778E-01  0.1262379E-14  0.3086420E-02
    1      -12.402997
    2      -12.402995
    3      -11.797772
    4      -11.797769
    5      -11.646346
    6      -11.646345
    7      -11.501369
    8      -11.501368
    9      -11.234399
   10      -11.234398
   11      -10.697705
   12      -10.697702
   13      -10.685074
   14      -10.685073
   15      -10.431724
   16      -10.431721
   17      -10.425924
   18      -10.425922
   19      -10.425220
   20      -10.425217
   21      -10.417254
   22      -10.417251
   23      -10.395440
   24      -10.395437
   25      -10.112923
   26      -10.112920
   27      -10.062474
   28      -10.062470
   29      -10.059895
   30      -10.059892
   31       -9.991511
   32       -9.991508
   33       -5.344001
   34       -5.343998
   35       -5.290922
   36       -5.290917
   37       -5.216190
   38       -5.216189
   39       -4.589432
   40       -4.589421
   41       -4.544095
   42       -4.544092
   43       -4.542123
   44       -4.542110
   45       -4.458509
   46       -4.458507
   47       -4.364299
   48       -4.364295
   49       -4.299894
   50       -4.299887
   51       -4.298027
   52       -4.298023
   53       -4.288930
   54       -4.288929
   55       -4.262431
   56       -4.262423
   57       -4.245456
   58       -4.245452
   59       -3.957483
   60       -3.957481
   61       -3.518674
   62       -3.518672
   63       -3.340679
   64       -3.340673
   65       -3.310591
   66       -3.310588
   67       -2.981148
   68       -2.981142
   69       -2.943583
   70       -2.943575
   71       -2.917961
   72       -2.917956
   73       -2.597318
   74       -2.597316
   75       -2.383414
   76       -2.383411
   77       -2.371216
   78       -2.371196
   79       -2.280746
   80       -2.280717
   81       -2.134381
   82       -2.134338
   83       -2.069355
   84       -2.069348
   85       -2.054173
   86       -2.054147
   87       -2.039035
   88       -2.039025
   89       -1.978004
   90       -1.977998
   91       -1.956716
   92       -1.956708
   93       -1.887636
   94       -1.887627
   95       -1.877358
   96       -1.877343
   97       -1.806736
   98       -1.806722
   99       -1.805128
  100       -1.805112
  101       -1.709570
  102       -1.709555
  103       -1.590066
  104       -1.590061
  105       -1.557444
  106       -1.557424
  107       -1.297944
  108       -1.297930
  109       -1.276757
  110       -1.276745
  111       -1.275962
  112       -1.275957
  113       -1.272553
  114       -1.272538
  115       -1.217615
  116       -1.217597
  117       -0.974590
  118       -0.974586
  119       -0.973654
  120       -0.973650
  121       -0.946597
  122       -0.946585
  123       -0.916058
  124       -0.916051
  125       -0.906388
  126       -0.906379
  127       -0.601616
  128       -0.601612
  129       -0.478191
  130       -0.478187
  131       -0.442684
  132       -0.442678
  133       -0.417754
  134       -0.417739
  135       -0.290059
  136       -0.290050
  137       -0.139265
  138       -0.139262
  139       -0.107337
  140       -0.107333
  141        0.070150
  142        0.070154
  143        0.487550
  144        0.487557
  145        0.669462
  146        0.669465
  147        1.041730
  148        1.041738
  149        1.482488
  150        1.482493
  151        1.525252
  152        1.525260
  153        1.542560
  154        1.542579
  155        1.561343
  156        1.561348
  157        1.568524
  158        1.568534
  159        1.610625
  160        1.610627
  161        1.808358
  162        1.808363
  163        1.865222
  164        1.865261
  165        1.873671
  166        1.873709
  167        2.040395
  168        2.040396
  169        2.207729
  170        2.207733
  171        2.219714
  172        2.219720
  173        2.296484
  174        2.296491
  175        2.322464
  176        2.322467
  177        2.404481
  178        2.404488
  179        2.438405
  180        2.438409
  181        2.595525
  182        2.595533
  183        2.706441
  184        2.706450
  185        2.818516
  186        2.818520
  187        3.177600
  188        3.177605
  189        3.303977
  190        3.303987
  191        3.455296
  192        3.455300
  193        3.594333
  194        3.594340
  195        3.780746
  196        3.780751
  197        3.787361
  198        3.787374
  199        3.821007
  200        3.821015
  201        3.942698
  202        3.942773
  203        3.972912
  204        3.972931
  205        3.994414
  206        3.994434
  207        4.043561
  208        4.043563
  209        4.193805
  210        4.195025
  211        4.838629
  212        4.839083
  213        4.881892
  214        4.882477
  215        4.950460
  216        4.950467
  217        5.024433
  218        5.024434
  219        5.132262
  220        5.133503
  221        5.207279
  222        5.208182
  223        5.366797
  224        5.367424
 
  0.8333333E-01  0.2777778E-01  0.1262379E-14  0.3086420E-02
    1      -12.385654
    2      -12.385652
    3      -11.781885
    4      -11.781883
    5      -11.631682
    6      -11.631681
    7      -11.489578
    8      -11.489577
    9      -11.224216
   10      -11.224215
   11      -10.686470
   12      -10.686467
   13      -10.676036
   14      -10.676034
   15      -10.533743
   16      -10.533740
   17      -10.455598
   18      -10.455595
   19      -10.428997
   20      -10.428995
   21      -10.418390
   22      -10.418388
   23      -10.413509
   24      -10.413506
   25      -10.153142
   26      -10.153139
   27      -10.132205
   28      -10.132202
   29       -9.991511
   30       -9.991508
   31       -9.951143
   32       -9.951140
   33       -5.337219
   34       -5.337216
   35       -5.198210
   36       -5.198208
   37       -5.181378
   38       -5.181372
   39       -4.626268
   40       -4.626257
   41       -4.524195
   42       -4.524191
   43       -4.510288
   44       -4.510277
   45       -4.437394
   46       -4.437391
   47       -4.398332
   48       -4.398328
   49       -4.300521
   50       -4.300518
   51       -4.281605
   52       -4.281604
   53       -4.248004
   54       -4.247996
   55       -4.202966
   56       -4.202962
   57       -4.118015
   58       -4.118011
   59       -3.942983
   60       -3.942982
   61       -3.510583
   62       -3.510581
   63       -3.346687
   64       -3.346680
   65       -3.257053
   66       -3.257049
   67       -2.969484
   68       -2.969478
   69       -2.969262
   70       -2.969254
   71       -2.901983
   72       -2.901982
   73       -2.628817
   74       -2.628810
   75       -2.511246
   76       -2.511230
   77       -2.392144
   78       -2.392140
   79       -2.357552
   80       -2.357543
   81       -2.188193
   82       -2.188188
   83       -2.093912
   84       -2.093906
   85       -2.083456
   86       -2.083427
   87       -2.060120
   88       -2.060112
   89       -1.999274
   90       -1.999246
   91       -1.949072
   92       -1.949053
   93       -1.947323
   94       -1.947289
   95       -1.896325
   96       -1.896309
   97       -1.840042
   98       -1.840031
   99       -1.681052
  100       -1.681037
  101       -1.628865
  102       -1.628823
  103       -1.588675
  104       -1.588663
  105       -1.500060
  106       -1.500007
  107       -1.354509
  108       -1.354492
  109       -1.322849
  110       -1.322837
  111       -1.275435
  112       -1.275429
  113       -1.264070
  114       -1.264059
  115       -1.216066
  116       -1.216047
  117       -0.982840
  118       -0.982821
  119       -0.973822
  120       -0.973820
  121       -0.954520
  122       -0.954516
  123       -0.905012
  124       -0.905007
  125       -0.785260
  126       -0.785251
  127       -0.608866
  128       -0.608862
  129       -0.479178
  130       -0.479172
  131       -0.478420
  132       -0.478415
  133       -0.409072
  134       -0.409058
  135       -0.309683
  136       -0.309658
  137       -0.198444
  138       -0.198433
  139       -0.167030
  140       -0.167021
  141        0.075653
  142        0.075658
  143        0.558473
  144        0.558480
  145        0.622581
  146        0.622587
  147        0.937824
  148        0.937837
  149        1.422156
  150        1.422160
  151        1.485531
  152        1.485547
  153        1.497977
  154        1.497981
  155        1.548975
  156        1.548983
  157        1.567463
  158        1.567472
  159        1.626171
  160        1.626177
  161        1.825939
  162        1.825945
  163        1.877077
  164        1.877117
  165        1.894095
  166        1.894131
  167        2.073067
  168        2.073070
  169        2.126519
  170        2.126522
  171        2.208565
  172        2.208571
  173        2.254529
  174        2.254532
  175        2.383988
  176        2.384005
  177        2.433121
  178        2.433124
  179        2.482023
  180        2.482029
  181        2.494906
  182        2.494921
  183        2.737971
  184        2.737977
  185        2.824240
  186        2.824249
  187        3.169116
  188        3.169132
  189        3.300547
  190        3.300568
  191        3.418758
  192        3.418767
  193        3.507440
  194        3.507455
  195        3.640924
  196        3.640961
  197        3.686013
  198        3.686016
  199        3.792302
  200        3.792308
  201        3.875110
  202        3.875158
  203        3.885540
  204        3.885543
  205        3.923148
  206        3.923160
  207        3.985505
  208        3.985523
  209        4.227712
  210        4.228973
  211        4.863844
  212        4.864299
  213        4.918922
  214        4.918929
  215        4.929311
  216        4.929950
  217        5.140495
  218        5.140496
  219        5.153780
  220        5.155018
  221        5.230277
  222        5.231136
  223        5.416639
  224        5.417246
 
  0.1388889E+00  0.2777778E-01  0.1262379E-14  0.3086420E-02
    1      -12.351055
    2      -12.351053
    3      -11.750234
    4      -11.750232
    5      -11.602552
    6      -11.602551
    7      -11.466119
    8      -11.466119
    9      -11.203994
   10      -11.203993
   11      -10.676252
   12      -10.676249
   13      -10.664178
   14      -10.664175
   15      -10.658167
   16      -10.658165
   17      -10.505723
   18      -10.505721
   19      -10.475296
   20      -10.475295
   21      -10.459905
   22      -10.459902
   23      -10.390377
   24      -10.390374
   25      -10.265789
   26      -10.265787
   27      -10.140501
   28      -10.140498
   29       -9.939239
   30       -9.939235
   31       -9.927317
   32       -9.927313
   33       -5.270757
   34       -5.270754
   35       -5.162608
   36       -5.162606
   37       -5.021788
   38       -5.021782
   39       -4.625774
   40       -4.625763
   41       -4.487410
   42       -4.487398
   43       -4.485118
   44       -4.485114
   45       -4.398884
   46       -4.398880
   47       -4.395632
   48       -4.395629
   49       -4.277688
   50       -4.277686
   51       -4.267208
   52       -4.267207
   53       -4.219750
   54       -4.219742
   55       -4.085172
   56       -4.085169
   57       -3.929984
   58       -3.929978
   59       -3.914279
   60       -3.914277
   61       -3.495156
   62       -3.495154
   63       -3.331093
   64       -3.331081
   65       -3.184052
   66       -3.184045
   67       -2.990723
   68       -2.990714
   69       -2.947722
   70       -2.947711
   71       -2.905465
   72       -2.905463
   73       -2.693001
   74       -2.692988
   75       -2.651111
   76       -2.651098
   77       -2.487667
   78       -2.487663
   79       -2.411204
   80       -2.411200
   81       -2.333338
   82       -2.333334
   83       -2.203020
   84       -2.203016
   85       -2.157483
   86       -2.157477
   87       -2.075131
   88       -2.075102
   89       -2.031742
   90       -2.031721
   91       -2.003216
   92       -2.003176
   93       -1.992817
   94       -1.992808
   95       -1.855808
   96       -1.855795
   97       -1.769046
   98       -1.769037
   99       -1.608414
  100       -1.608397
  101       -1.569989
  102       -1.569933
  103       -1.564123
  104       -1.564104
  105       -1.443150
  106       -1.443079
  107       -1.422158
  108       -1.422137
  109       -1.363211
  110       -1.363196
  111       -1.277234
  112       -1.277226
  113       -1.238881
  114       -1.238871
  115       -1.231626
  116       -1.231604
  117       -1.037135
  118       -1.037110
  119       -0.934360
  120       -0.934356
  121       -0.931967
  122       -0.931964
  123       -0.889735
  124       -0.889733
  125       -0.644070
  126       -0.644061
  127       -0.625915
  128       -0.625910
  129       -0.534338
  130       -0.534331
  131       -0.525908
  132       -0.525900
  133       -0.411359
  134       -0.411345
  135       -0.346028
  136       -0.346005
  137       -0.263122
  138       -0.263111
  139       -0.225068
  140       -0.225057
  141        0.076539
  142        0.076547
  143        0.548092
  144        0.548102
  145        0.657378
  146        0.657384
  147        0.775901
  148        0.775918
  149        1.328559
  150        1.328564
  151        1.346750
  152        1.346754
  153        1.396044
  154        1.396057
  155        1.543925
  156        1.543931
  157        1.553098
  158        1.553106
  159        1.705022
  160        1.705029
  161        1.840449
  162        1.840455
  163        1.884220
  164        1.884234
  165        1.941197
  166        1.941209
  167        2.054378
  168        2.054381
  169        2.124731
  170        2.124737
  171        2.186343
  172        2.186351
  173        2.222571
  174        2.222574
  175        2.394564
  176        2.394587
  177        2.415103
  178        2.415107
  179        2.471491
  180        2.471510
  181        2.540524
  182        2.540531
  183        2.624120
  184        2.624125
  185        2.943232
  186        2.943244
  187        3.077715
  188        3.077731
  189        3.282451
  190        3.282469
  191        3.318954
  192        3.318976
  193        3.398409
  194        3.398435
  195        3.454548
  196        3.454597
  197        3.563185
  198        3.563188
  199        3.645147
  200        3.645150
  201        3.703359
  202        3.703365
  203        3.794904
  204        3.794947
  205        3.850984
  206        3.850995
  207        3.950745
  208        3.950762
  209        4.281952
  210        4.283256
  211        4.911271
  212        4.911729
  213        4.927874
  214        4.927882
  215        5.003734
  216        5.004470
  217        5.195095
  218        5.196328
  219        5.274351
  220        5.275125
  221        5.294759
  222        5.294761
  223        5.489627
  224        5.490260
 
  0.1944444E+00  0.2777778E-01  0.1262379E-14  0.3086420E-02
    1      -12.299423
    2      -12.299421
    3      -11.703074
    4      -11.703072
    5      -11.559358
    6      -11.559357
    7      -11.431253
    8      -11.431253
    9      -11.174030
   10      -11.174029
   11      -10.838042
   12      -10.838039
   13      -10.631877
   14      -10.631875
   15      -10.631193
   16      -10.631190
   17      -10.574639
   18      -10.574637
   19      -10.551058
   20      -10.551057
   21      -10.509652
   22      -10.509649
   23      -10.389680
   24      -10.389678
   25      -10.356403
   26      -10.356400
   27      -10.153358
   28      -10.153356
   29       -9.953634
   30       -9.953630
   31       -9.884424
   32       -9.884421
   33       -5.148329
   34       -5.148326
   35       -5.110118
   36       -5.110116
   37       -4.821232
   38       -4.821225
   39       -4.579401
   40       -4.579387
   41       -4.458263
   42       -4.458249
   43       -4.428789
   44       -4.428786
   45       -4.366454
   46       -4.366448
   47       -4.334252
   48       -4.334248
   49       -4.251685
   50       -4.251682
   51       -4.245801
   52       -4.245800
   53       -4.178997
   54       -4.178987
   55       -3.953587
   56       -3.953584
   57       -3.872012
   58       -3.872009
   59       -3.705614
   60       -3.705604
   61       -3.473975
   62       -3.473972
   63       -3.301672
   64       -3.301656
   65       -3.103527
   66       -3.103514
   67       -3.006962
   68       -3.006944
   69       -2.936836
   70       -2.936828
   71       -2.927644
   72       -2.927624
   73       -2.782604
   74       -2.782584
   75       -2.764100
   76       -2.764091
   77       -2.614892
   78       -2.614886
   79       -2.472118
   80       -2.472114
   81       -2.442942
   82       -2.442936
   83       -2.360894
   84       -2.360889
   85       -2.218343
   86       -2.218337
   87       -2.195592
   88       -2.195576
   89       -2.088634
   90       -2.088628
   91       -2.045270
   92       -2.045255
   93       -2.042430
   94       -2.042399
   95       -1.769578
   96       -1.769572
   97       -1.684576
   98       -1.684566
   99       -1.664405
  100       -1.664384
  101       -1.566988
  102       -1.566941
  103       -1.482121
  104       -1.482087
  105       -1.444059
  106       -1.444032
  107       -1.411448
  108       -1.411415
  109       -1.409669
  110       -1.409609
  111       -1.285393
  112       -1.285383
  113       -1.246214
  114       -1.246188
  115       -1.188573
  116       -1.188562
  117       -1.082722
  118       -1.082692
  119       -0.934650
  120       -0.934648
  121       -0.879854
  122       -0.879847
  123       -0.873557
  124       -0.873553
  125       -0.659830
  126       -0.659825
  127       -0.655735
  128       -0.655720
  129       -0.575343
  130       -0.575333
  131       -0.501609
  132       -0.501600
  133       -0.420987
  134       -0.420972
  135       -0.372480
  136       -0.372464
  137       -0.362766
  138       -0.362754
  139       -0.208986
  140       -0.208978
  141        0.071352
  142        0.071362
  143        0.458301
  144        0.458317
  145        0.593564
  146        0.593586
  147        0.757783
  148        0.757790
  149        1.148632
  150        1.148637
  151        1.259829
  152        1.259833
  153        1.281207
  154        1.281218
  155        1.503685
  156        1.503690
  157        1.537832
  158        1.537840
  159        1.753643
  160        1.753653
  161        1.851805
  162        1.851811
  163        1.869285
  164        1.869290
  165        1.989749
  166        1.989753
  167        2.015591
  168        2.015594
  169        2.151404
  170        2.151414
  171        2.176898
  172        2.176909
  173        2.241595
  174        2.241600
  175        2.324933
  176        2.324945
  177        2.379550
  178        2.379556
  179        2.522678
  180        2.522684
  181        2.538827
  182        2.538830
  183        2.569479
  184        2.569486
  185        2.942791
  186        2.942807
  187        3.029849
  188        3.029863
  189        3.036888
  190        3.036895
  191        3.169217
  192        3.169245
  193        3.298946
  194        3.298978
  195        3.347731
  196        3.347757
  197        3.462385
  198        3.462389
  199        3.496425
  200        3.496434
  201        3.574448
  202        3.574457
  203        3.747404
  204        3.747444
  205        3.766910
  206        3.766919
  207        3.895819
  208        3.895835
  209        4.349520
  210        4.350854
  211        4.977024
  212        4.977034
  213        4.977804
  214        4.978265
  215        5.094016
  216        5.094881
  217        5.254548
  218        5.255780
  219        5.337865
  220        5.338512
  221        5.476564
  222        5.476568
  223        5.521394
  224        5.521409
 
  0.2500000E+00  0.2777778E-01  0.1262379E-14  0.3086420E-02
    1      -12.231102
    2      -12.231101
    3      -11.640797
    4      -11.640795
    5      -11.502715
    6      -11.502714
    7      -11.385383
    8      -11.385383
    9      -11.134775
   10      -11.134774
   11      -11.007852
   12      -11.007850
   13      -10.659952
   14      -10.659950
   15      -10.638023
   16      -10.638022
   17      -10.597814
   18      -10.597812
   19      -10.588078
   20      -10.588075
   21      -10.585709
   22      -10.585705
   23      -10.508078
   24      -10.508077
   25      -10.312520
   26      -10.312517
   27      -10.175962
   28      -10.175959
   29       -9.990220
   30       -9.990217
   31       -9.867325
   32       -9.867322
   33       -5.041938
   34       -5.041936
   35       -4.976552
   36       -4.976548
   37       -4.592123
   38       -4.592113
   39       -4.503399
   40       -4.503380
   41       -4.405951
   42       -4.405936
   43       -4.360338
   44       -4.360335
   45       -4.302550
   46       -4.302541
   47       -4.255048
   48       -4.255042
   49       -4.230798
   50       -4.230796
   51       -4.215375
   52       -4.215373
   53       -4.127833
   54       -4.127822
   55       -3.819187
   56       -3.819184
   57       -3.817160
   58       -3.817157
   59       -3.481362
   60       -3.481344
   61       -3.449400
   62       -3.449397
   63       -3.274154
   64       -3.274131
   65       -3.043763
   66       -3.043737
   67       -3.033908
   68       -3.033870
   69       -2.992168
   70       -2.992142
   71       -2.977569
   72       -2.977548
   73       -2.831882
   74       -2.831863
   75       -2.812982
   76       -2.812976
   77       -2.700275
   78       -2.700269
   79       -2.582800
   80       -2.582796
   81       -2.529833
   82       -2.529824
   83       -2.491680
   84       -2.491668
   85       -2.325293
   86       -2.325281
   87       -2.270595
   88       -2.270588
   89       -2.180067
   90       -2.180062
   91       -2.108817
   92       -2.108806
   93       -2.091535
   94       -2.091504
   95       -1.760526
   96       -1.760499
   97       -1.685074
   98       -1.685071
   99       -1.657193
  100       -1.657166
  101       -1.600301
  102       -1.600287
  103       -1.496459
  104       -1.496450
  105       -1.433926
  106       -1.433892
  107       -1.392827
  108       -1.392795
  109       -1.392647
  110       -1.392624
  111       -1.302484
  112       -1.302474
  113       -1.247270
  114       -1.247240
  115       -1.113951
  116       -1.113941
  117       -1.103553
  118       -1.103519
  119       -0.981826
  120       -0.981825
  121       -0.898906
  122       -0.898890
  123       -0.800488
  124       -0.800484
  125       -0.754753
  126       -0.754738
  127       -0.720295
  128       -0.720291
  129       -0.619410
  130       -0.619399
  131       -0.438764
  132       -0.438748
  133       -0.432900
  134       -0.432886
  135       -0.426465
  136       -0.426449
  137       -0.366699
  138       -0.366690
  139       -0.171975
  140       -0.171965
  141        0.060481
  142        0.060498
  143        0.309100
  144        0.309121
  145        0.468026
  146        0.468038
  147        0.850031
  148        0.850038
  149        0.993725
  150        0.993731
  151        1.150404
  152        1.150413
  153        1.165877
  154        1.165882
  155        1.458092
  156        1.458095
  157        1.504038
  158        1.504045
  159        1.736001
  160        1.736012
  161        1.839569
  162        1.839571
  163        1.864002
  164        1.864012
  165        1.931743
  166        1.931748
  167        2.102264
  168        2.102276
  169        2.104960
  170        2.104964
  171        2.222149
  172        2.222168
  173        2.275632
  174        2.275641
  175        2.303122
  176        2.303128
  177        2.361123
  178        2.361136
  179        2.488844
  180        2.488848
  181        2.545450
  182        2.545451
  183        2.564545
  184        2.564552
  185        2.774738
  186        2.774746
  187        2.796989
  188        2.797003
  189        3.005542
  190        3.005579
  191        3.011654
  192        3.011669
  193        3.128875
  194        3.128908
  195        3.177188
  196        3.177207
  197        3.393862
  198        3.393869
  199        3.494909
  200        3.494919
  201        3.564944
  202        3.564954
  203        3.680313
  204        3.680321
  205        3.721536
  206        3.721570
  207        3.827410
  208        3.827427
  209        4.428166
  210        4.429514
  211        5.061547
  212        5.062009
  213        5.070511
  214        5.070524
  215        5.194838
  216        5.195842
  217        5.330799
  218        5.332038
  219        5.420081
  220        5.420568
  221        5.458408
  222        5.458415
  223        5.630686
  224        5.656027
 
  0.3055556E+00  0.2777778E-01  0.1262379E-14  0.3086420E-02
    1      -12.146535
    2      -12.146534
    3      -11.563952
    4      -11.563950
    5      -11.433472
    6      -11.433471
    7      -11.329066
    8      -11.329066
    9      -11.179031
   10      -11.179029
   11      -11.086839
   12      -11.086838
   13      -10.759604
   14      -10.759602
   15      -10.731358
   16      -10.731358
   17      -10.700405
   18      -10.700401
   19      -10.598707
   20      -10.598706
   21      -10.556866
   22      -10.556864
   23      -10.535617
   24      -10.535614
   25      -10.260040
   26      -10.260037
   27      -10.208806
   28      -10.208804
   29      -10.043942
   30      -10.043939
   31       -9.875277
   32       -9.875274
   33       -4.959830
   34       -4.959827
   35       -4.764286
   36       -4.764282
   37       -4.451666
   38       -4.451654
   39       -4.355085
   40       -4.355065
   41       -4.315799
   42       -4.315796
   43       -4.294236
   44       -4.294231
   45       -4.207562
   46       -4.207543
   47       -4.190642
   48       -4.190631
   49       -4.165739
   50       -4.165736
   51       -4.161288
   52       -4.161279
   53       -4.069128
   54       -4.069115
   55       -3.751158
   56       -3.751154
   57       -3.690124
   58       -3.690121
   59       -3.424423
   60       -3.424420
   61       -3.366112
   62       -3.366088
   63       -3.252339
   64       -3.252306
   65       -3.120361
   66       -3.120347
   67       -3.113953
   68       -3.113927
   69       -3.047903
   70       -3.047893
   71       -2.990678
   72       -2.990653
   73       -2.845337
   74       -2.845321
   75       -2.782018
   76       -2.782013
   77       -2.686916
   78       -2.686898
   79       -2.675572
   80       -2.675563
   81       -2.635563
   82       -2.635558
   83       -2.577994
   84       -2.577978
   85       -2.439946
   86       -2.439934
   87       -2.307353
   88       -2.307346
   89       -2.262633
   90       -2.262629
   91       -2.179977
   92       -2.179968
   93       -2.165130
   94       -2.165099
   95       -1.882784
   96       -1.882754
   97       -1.824852
   98       -1.824834
   99       -1.615948
  100       -1.615928
  101       -1.603715
  102       -1.603713
  103       -1.462816
  104       -1.462800
  105       -1.414782
  106       -1.414746
  107       -1.404435
  108       -1.404411
  109       -1.334226
  110       -1.334214
  111       -1.326758
  112       -1.326747
  113       -1.225524
  114       -1.225493
  115       -1.108037
  116       -1.108000
  117       -1.064927
  118       -1.064924
  119       -1.033366
  120       -1.033358
  121       -0.964072
  122       -0.964054
  123       -0.813917
  124       -0.813907
  125       -0.789662
  126       -0.789651
  127       -0.722496
  128       -0.722492
  129       -0.651689
  130       -0.651677
  131       -0.502636
  132       -0.502616
  133       -0.501810
  134       -0.501793
  135       -0.440105
  136       -0.440091
  137       -0.244497
  138       -0.244489
  139       -0.142539
  140       -0.142525
  141        0.000079
  142        0.000102
  143        0.154493
  144        0.154517
  145        0.419167
  146        0.419173
  147        0.873586
  148        0.873592
  149        0.941445
  150        0.941452
  151        1.012363
  152        1.012372
  153        1.070050
  154        1.070055
  155        1.419410
  156        1.419413
  157        1.453665
  158        1.453672
  159        1.661250
  160        1.661260
  161        1.810538
  162        1.810539
  163        1.880722
  164        1.880738
  165        1.882056
  166        1.882062
  167        2.043564
  168        2.043579
  169        2.197164
  170        2.197169
  171        2.251247
  172        2.251254
  173        2.260208
  174        2.260239
  175        2.361931
  176        2.361951
  177        2.384715
  178        2.384722
  179        2.445174
  180        2.445188
  181        2.529659
  182        2.529661
  183        2.529874
  184        2.529882
  185        2.556918
  186        2.556937
  187        2.659763
  188        2.659773
  189        2.867586
  190        2.867635
  191        2.915546
  192        2.915559
  193        2.957691
  194        2.957744
  195        3.119028
  196        3.119038
  197        3.239039
  198        3.239046
  199        3.575448
  200        3.575453
  201        3.595410
  202        3.595417
  203        3.636499
  204        3.636509
  205        3.697658
  206        3.697685
  207        3.753497
  208        3.753513
  209        4.518345
  210        4.519689
  211        5.161388
  212        5.161849
  213        5.215721
  214        5.215739
  215        5.302560
  216        5.303668
  217        5.419646