mesh: [    64,    64,     1 ]
nqpoint: 1024   
reciprocal_lattice:
- [   0.14484357,   0.00000000,   0.00000000 ] # a*
- [   0.00000000,   0.07851759,   0.00000000 ] # b*
- [   0.00000000,   0.00000000,   0.06250000 ] # c*
natom:   24     
lattice:
- [     6.904000000000000,     0.000000000000000,     0.000000000000000 ] # a
- [     0.000000000000000,    12.736000000000001,     0.000000000000000 ] # b
- [     0.000000000000000,     0.000000000000000,    16.000000000000000 ] # c
points:
- symbol: Te # 1
  coordinates: [  0.250000000000000,  0.050816582914573,  0.129133125000000 ]
  mass: 127.600000
- symbol: Te # 2
  coordinates: [  0.750000000000000,  0.050816582914573,  0.129133125000000 ]
  mass: 127.600000
- symbol: Te # 3
  coordinates: [  0.250000000000000,  0.550816582914573,  0.129133125000000 ]
  mass: 127.600000
- symbol: Te # 4
  coordinates: [  0.750000000000000,  0.550816582914573,  0.129133125000000 ]
  mass: 127.600000
- symbol: Te # 5
  coordinates: [  0.250000000000000,  0.374578360552764,  0.907584375000000 ]
  mass: 127.600000
- symbol: Te # 6
  coordinates: [  0.750000000000000,  0.374578360552764,  0.907584375000000 ]
  mass: 127.600000
- symbol: Te # 7
  coordinates: [  0.250000000000000,  0.874578360552764,  0.907584375000000 ]
  mass: 127.600000
- symbol: Te # 8
  coordinates: [  0.750000000000000,  0.874578360552764,  0.907584375000000 ]
  mass: 127.600000
- symbol: Te # 9
  coordinates: [  0.000000000000000,  0.128705244974874,  0.870865625000000 ]
  mass: 127.600000
- symbol: Te # 10
  coordinates: [  0.500000000000000,  0.128705244974874,  0.870865625000000 ]
  mass: 127.600000
- symbol: Te # 11
  coordinates: [  0.000000000000000,  0.628705244974874,  0.870865625000000 ]
  mass: 127.600000
- symbol: Te # 12
  coordinates: [  0.500000000000000,  0.628705244974874,  0.870865625000000 ]
  mass: 127.600000
- symbol: Te # 13
  coordinates: [  0.000000000000000,  0.304940326633166,  0.092416250000000 ]
  mass: 127.600000
- symbol: Te # 14
  coordinates: [  0.500000000000000,  0.304940326633166,  0.092416250000000 ]
  mass: 127.600000
- symbol: Te # 15
  coordinates: [  0.000000000000000,  0.804940326633166,  0.092416250000000 ]
  mass: 127.600000
- symbol: Te # 16
  coordinates: [  0.500000000000000,  0.804940326633166,  0.092416250000000 ]
  mass: 127.600000
- symbol: Mo # 17
  coordinates: [  0.250000000000000,  0.180298366834171,  0.994067500000000 ]
  mass: 95.960000
- symbol: Mo # 18
  coordinates: [  0.750000000000000,  0.180298366834171,  0.994067500000000 ]
  mass: 95.960000
- symbol: Mo # 19
  coordinates: [  0.250000000000000,  0.680298366834171,  0.994067500000000 ]
  mass: 95.960000
- symbol: Mo # 20
  coordinates: [  0.750000000000000,  0.680298366834171,  0.994067500000000 ]
  mass: 95.960000
- symbol: Mo # 21
  coordinates: [  0.000000000000000,  0.999219535175879,  0.005933125000000 ]
  mass: 95.960000
- symbol: Mo # 22
  coordinates: [  0.500000000000000,  0.999219535175879,  0.005933125000000 ]
  mass: 95.960000
- symbol: Mo # 23
  coordinates: [  0.000000000000000,  0.499219535175879,  0.005933125000000 ]
  mass: 95.960000
- symbol: Mo # 24
  coordinates: [  0.500000000000000,  0.499219535175879,  0.005933125000000 ]
  mass: 95.960000
phonon:
- q-position: [    0.0078125,    0.0078125,    0.0000000 ]
  weight: 4    
  band:
  - # 1
    frequency:    -0.0696356333
  - # 2
    frequency:    -0.0391831099
  - # 3
    frequency:    -0.0158139597
  - # 4
    frequency:     1.3539669905
  - # 5
    frequency:     1.4802171397
  - # 6
    frequency:     1.4875187720
  - # 7
    frequency:     1.8565886345
  - # 8
    frequency:     2.2263694292
  - # 9
    frequency:     2.2393397918
  - # 10
    frequency:     2.3511297620
  - # 11
    frequency:     2.3617331880
  - # 12
    frequency:     2.3625565414
  - # 13
    frequency:     2.6517826497
  - # 14
    frequency:     2.7404029069
  - # 15
    frequency:     2.7424993635
  - # 16
    frequency:     2.7472884361
  - # 17
    frequency:     2.8655632851
  - # 18
    frequency:     2.9202447325
  - # 19
    frequency:     2.9248145389
  - # 20
    frequency:     3.0468239511
  - # 21
    frequency:     3.1204028213
  - # 22
    frequency:     3.1256513510
  - # 23
    frequency:     3.1315967447
  - # 24
    frequency:     3.1954601178
  - # 25
    frequency:     3.1958122674
  - # 26
    frequency:     3.2362592035
  - # 27
    frequency:     3.3336243461
  - # 28
    frequency:     3.4071070121
  - # 29
    frequency:     3.4211685128
  - # 30
    frequency:     3.4491574284
  - # 31
    frequency:     3.4521671030
  - # 32
    frequency:     3.6528515638
  - # 33
    frequency:     3.6881719618
  - # 34
    frequency:     3.7711575341
  - # 35
    frequency:     3.9119960346
  - # 36
    frequency:     3.9143072504
  - # 37
    frequency:     3.9521552978
  - # 38
    frequency:     4.0789710020
  - # 39
    frequency:     4.0882400411
  - # 40
    frequency:     4.1891929351
  - # 41
    frequency:     4.1903042247
  - # 42
    frequency:     4.2375221923
  - # 43
    frequency:     4.5047113010
  - # 44
    frequency:     4.5127572675
  - # 45
    frequency:     4.5927675102
  - # 46
    frequency:     4.5936333989
  - # 47
    frequency:     4.7631982351
  - # 48
    frequency:     4.8894720317
  - # 49
    frequency:     4.9729263984
  - # 50
    frequency:     5.3614713443
  - # 51
    frequency:     5.4265508886
  - # 52
    frequency:     5.6646845246
  - # 53
    frequency:     5.8386061444
  - # 54
    frequency:     5.8483352317
  - # 55
    frequency:     5.8619744900
  - # 56
    frequency:     5.8856923457
  - # 57
    frequency:     6.1128200331
  - # 58
    frequency:     6.1148446375
  - # 59
    frequency:     6.4044583965
  - # 60
    frequency:     6.4152056956
  - # 61
    frequency:     6.6391267380
  - # 62
    frequency:     6.6477773426
  - # 63
    frequency:     7.1220307191
  - # 64
    frequency:     7.1242810141
  - # 65
    frequency:     7.8174299126
  - # 66
    frequency:     7.8180943662
  - # 67
    frequency:     7.8431832932
  - # 68
    frequency:     7.8441385255
  - # 69
    frequency:     8.0104959127
  - # 70
    frequency:     8.1788730347
  - # 71
    frequency:     8.2643039559
  - # 72
    frequency:     8.3072583686

- q-position: [    0.0234375,    0.0078125,    0.0000000 ]
  weight: 4    
  band:
  - # 1
    frequency:     0.0394142919
  - # 2
    frequency:     0.0797954095
  - # 3
    frequency:     0.1084090911
  - # 4
    frequency:     1.3542244142
  - # 5
    frequency:     1.4766491711
  - # 6
    frequency:     1.4972583988
  - # 7
    frequency:     1.8614643873
  - # 8
    frequency:     2.2120670826
  - # 9
    frequency:     2.2509808198
  - # 10
    frequency:     2.3507329945
  - # 11
    frequency:     2.3607929131
  - # 12
    frequency:     2.3630162280
  - # 13
    frequency:     2.6548756492
  - # 14
    frequency:     2.7325697346
  - # 15
    frequency:     2.7421679366
  - # 16
    frequency:     2.7531623068
  - # 17
    frequency:     2.8675826694
  - # 18
    frequency:     2.9181101087
  - # 19
    frequency:     2.9270403233
  - # 20
    frequency:     3.0477865508
  - # 21
    frequency:     3.1139549429
  - # 22
    frequency:     3.1299170013
  - # 23
    frequency:     3.1356482565
  - # 24
    frequency:     3.1957733680
  - # 25
    frequency:     3.1963209509
  - # 26
    frequency:     3.2366192760
  - # 27
    frequency:     3.3346194943
  - # 28
    frequency:     3.3932725710
  - # 29
    frequency:     3.4350850454
  - # 30
    frequency:     3.4457130880
  - # 31
    frequency:     3.4546484458
  - # 32
    frequency:     3.6528975531
  - # 33
    frequency:     3.6875203877
  - # 34
    frequency:     3.7709160044
  - # 35
    frequency:     3.9088276776
  - # 36
    frequency:     3.9156732463
  - # 37
    frequency:     3.9519226365
  - # 38
    frequency:     4.0696426153
  - # 39
    frequency:     4.0972946587
  - # 40
    frequency:     4.1870721198
  - # 41
    frequency:     4.1903625855
  - # 42
    frequency:     4.2362392236
  - # 43
    frequency:     4.4952823602
  - # 44
    frequency:     4.5194360007
  - # 45
    frequency:     4.5906739727
  - # 46
    frequency:     4.5932105151
  - # 47
    frequency:     4.7609890055
  - # 48
    frequency:     4.8874038409
  - # 49
    frequency:     4.9745693228
  - # 50
    frequency:     5.3638683181
  - # 51
    frequency:     5.4287933144
  - # 52
    frequency:     5.6650391117
  - # 53
    frequency:     5.8285475238
  - # 54
    frequency:     5.8577127831
  - # 55
    frequency:     5.8628984632
  - # 56
    frequency:     5.8864685170
  - # 57
    frequency:     6.1102502894
  - # 58
    frequency:     6.1163096959
  - # 59
    frequency:     6.3941151570
  - # 60
    frequency:     6.4263647191
  - # 61
    frequency:     6.6305104766
  - # 62
    frequency:     6.6564941737
  - # 63
    frequency:     7.1218119213
  - # 64
    frequency:     7.1238847590
  - # 65
    frequency:     7.8171502058
  - # 66
    frequency:     7.8189698778
  - # 67
    frequency:     7.8424816613
  - # 68
    frequency:     7.8451982951
  - # 69
    frequency:     8.0101251135
  - # 70
    frequency:     8.1782642427
  - # 71
    frequency:     8.2636250343
  - # 72
    frequency:     8.3066003317

- q-position: [    0.0390625,    0.0078125,    0.0000000 ]
  weight: 4    
  band:
  - # 1
    frequency:     0.0721746381
  - # 2
    frequency:     0.1529340897
  - # 3
    frequency:     0.2089870930
  - # 4
    frequency:     1.3548070345
  - # 5
    frequency:     1.4757134378
  - # 6
    frequency:     1.5104687015
  - # 7
    frequency:     1.8711136079
  - # 8
    frequency:     2.1964294248
  - # 9
    frequency:     2.2613141081
  - # 10
    frequency:     2.3499493391
  - # 11
    frequency:     2.3596219529
  - # 12
    frequency:     2.3632075366
  - # 13
    frequency:     2.6610318162
  - # 14
    frequency:     2.7238602893
  - # 15
    frequency:     2.7415703841
  - # 16
    frequency:     2.7579669930
  - # 17
    frequency:     2.8716101894
  - # 18
    frequency:     2.9133879168
  - # 19
    frequency:     2.9321774375
  - # 20
    frequency:     3.0496986616
  - # 21
    frequency:     3.1059675991
  - # 22
    frequency:     3.1333625424
  - # 23
    frequency:     3.1434106900
  - # 24
    frequency:     3.1964278274
  - # 25
    frequency:     3.1973418581
  - # 26
    frequency:     3.2373715905
  - # 27
    frequency:     3.3366054270
  - # 28
    frequency:     3.3800920940
  - # 29
    frequency:     3.4418063044
  - # 30
    frequency:     3.4485504652
  - # 31
    frequency:     3.4566306312
  - # 32
    frequency:     3.6529911689
  - # 33
    frequency:     3.6862209398
  - # 34
    frequency:     3.7704366473
  - # 35
    frequency:     3.9048735335
  - # 36
    frequency:     3.9160194420
  - # 37
    frequency:     3.9514601801
  - # 38
    frequency:     4.0603952403
  - # 39
    frequency:     4.1059930052
  - # 40
    frequency:     4.1839765230
  - # 41
    frequency:     4.1893384325
  - # 42
    frequency:     4.2336958644
  - # 43
    frequency:     4.4844639466
  - # 44
    frequency:     4.5247726734
  - # 45
    frequency:     4.5873885831
  - # 46
    frequency:     4.5914753789
  - # 47
    frequency:     4.7566313157
  - # 48
    frequency:     4.8833274408
  - # 49
    frequency:     4.9778302645
  - # 50
    frequency:     5.3686019037
  - # 51
    frequency:     5.4332175246
  - # 52
    frequency:     5.6657500735
  - # 53
    frequency:     5.8181767060
  - # 54
    frequency:     5.8647446780
  - # 55
    frequency:     5.8667192869
  - # 56
    frequency:     5.8880151912
  - # 57
    frequency:     6.1071349012
  - # 58
    frequency:     6.1172187729
  - # 59
    frequency:     6.3841641730
  - # 60
    frequency:     6.4379398700
  - # 61
    frequency:     6.6218947138
  - # 62
    frequency:     6.6653077925
  - # 63
    frequency:     7.1213735924
  - # 64
    frequency:     7.1230910507
  - # 65
    frequency:     7.8171238888
  - # 66
    frequency:     7.8201883036
  - # 67
    frequency:     7.8419711225
  - # 68
    frequency:     7.8464293022
  - # 69
    frequency:     8.0093856393
  - # 70
    frequency:     8.1770491721
  - # 71
    frequency:     8.2622692186
  - # 72
    frequency:     8.3052859696

- q-position: [    0.0546875,    0.0078125,    0.0000000 ]
  weight: 4    
  band:
  - # 1
    frequency:     0.1039131251
  - # 2
    frequency:     0.2206831668
  - # 3
    frequency:     0.3027120025
  - # 4
    frequency:     1.3558381867
  - # 5
    frequency:     1.4773208011
  - # 6
    frequency:     1.5271055441
  - # 7
    frequency:     1.8853426313
  - # 8
    frequency:     2.1794651620
  - # 9
    frequency:     2.2703669276
  - # 10
    frequency:     2.3487981473
  - # 11
    frequency:     2.3582466452
  - # 12
    frequency:     2.3630666354
  - # 13
    frequency:     2.6701922602
  - # 14
    frequency:     2.7143554631
  - # 15
    frequency:     2.7408229859
  - # 16
    frequency:     2.7616501226
  - # 17
    frequency:     2.8776235053
  - # 18
    frequency:     2.9067252482
  - # 19
    frequency:     2.9399414912
  - # 20
    frequency:     3.0525348020
  - # 21
    frequency:     3.0960583534
  - # 22
    frequency:     3.1360459389
  - # 23
    frequency:     3.1543063492
  - # 24
    frequency:     3.1973948996
  - # 25
    frequency:     3.1989634078
  - # 26
    frequency:     3.2385944033
  - # 27
    frequency:     3.3395730437
  - # 28
    frequency:     3.3680280237
  - # 29
    frequency:     3.4374629507
  - # 30
    frequency:     3.4580905377
  - # 31
    frequency:     3.4613172055
  - # 32
    frequency:     3.6531356851
  - # 33
    frequency:     3.6842810260
  - # 34
    frequency:     3.7697269736
  - # 35
    frequency:     3.9001981702
  - # 36
    frequency:     3.9152817336
  - # 37
    frequency:     3.9507737089
  - # 38
    frequency:     4.0513567155
  - # 39
    frequency:     4.1141970964
  - # 40
    frequency:     4.1799480935
  - # 41
    frequency:     4.1872002331
  - # 42
    frequency:     4.2299358845
  - # 43
    frequency:     4.4722586406
  - # 44
    frequency:     4.5288022001
  - # 45
    frequency:     4.5829668954
  - # 46
    frequency:     4.5883970586
  - # 47
    frequency:     4.7502401403
  - # 48
    frequency:     4.8773556630
  - # 49
    frequency:     4.9826611993
  - # 50
    frequency:     5.3755579564
  - # 51
    frequency:     5.4397090362
  - # 52
    frequency:     5.6668208587
  - # 53
    frequency:     5.8075112291
  - # 54
    frequency:     5.8675099753
  - # 55
    frequency:     5.8753325426
  - # 56
    frequency:     5.8903211857
  - # 57
    frequency:     6.1034824870
  - # 58
    frequency:     6.1175692901
  - # 59
    frequency:     6.3745898116
  - # 60
    frequency:     6.4499320928
  - # 61
    frequency:     6.6132447836
  - # 62
    frequency:     6.6742463002
  - # 63
    frequency:     7.1207142348
  - # 64
    frequency:     7.1218975412
  - # 65
    frequency:     7.8173496972
  - # 66
    frequency:     7.8217518762
  - # 67
    frequency:     7.8416821200
  - # 68
    frequency:     7.8478094193
  - # 69
    frequency:     8.0082817237
  - # 70
    frequency:     8.1752328461
  - # 71
    frequency:     8.2602405626
  - # 72
    frequency:     8.3033187038

- q-position: [    0.0703125,    0.0078125,    0.0000000 ]
  weight: 4    
  band:
  - # 1
    frequency:     0.1358017214
  - # 2
    frequency:     0.2870084076
  - # 3
    frequency:     0.3941866914
  - # 4
    frequency:     1.3574775956
  - # 5
    frequency:     1.4812904701
  - # 6
    frequency:     1.5471578938
  - # 7
    frequency:     1.9038850704
  - # 8
    frequency:     2.1611894223
  - # 9
    frequency:     2.2781767563
  - # 10
    frequency:     2.3473074799
  - # 11
    frequency:     2.3566678994
  - # 12
    frequency:     2.3625350747
  - # 13
    frequency:     2.6822705096
  - # 14
    frequency:     2.7041475451
  - # 15
    frequency:     2.7400711615
  - # 16
    frequency:     2.7641642003
  - # 17
    frequency:     2.8855894745
  - # 18
    frequency:     2.8987421426
  - # 19
    frequency:     2.9500833438
  - # 20
    frequency:     3.0562584187
  - # 21
    frequency:     3.0838296828
  - # 22
    frequency:     3.1379543936
  - # 23
    frequency:     3.1676267116
  - # 24
    frequency:     3.1986326603
  - # 25
    frequency:     3.2013072653
  - # 26
    frequency:     3.2404506990
  - # 27
    frequency:     3.3435077981
  - # 28
    frequency:     3.3575330092
  - # 29
    frequency:     3.4327044449
  - # 30
    frequency:     3.4590105230
  - # 31
    frequency:     3.4731897593
  - # 32
    frequency:     3.6533360151
  - # 33
    frequency:     3.6817117595
  - # 34
    frequency:     3.7687985272
  - # 35
    frequency:     3.8948510895
  - # 36
    frequency:     3.9134269882
  - # 37
    frequency:     3.9498720193
  - # 38
    frequency:     4.0426224034
  - # 39
    frequency:     4.1217800455
  - # 40
    frequency:     4.1750307019
  - # 41
    frequency:     4.1839199809
  - # 42
    frequency:     4.2250216677
  - # 43
    frequency:     4.4586780483
  - # 44
    frequency:     4.5315695681
  - # 45
    frequency:     4.5774692157
  - # 46
    frequency:     4.5839521585
  - # 47
    frequency:     4.7419731597
  - # 48
    frequency:     4.8696420558
  - # 49
    frequency:     4.9889939877
  - # 50
    frequency:     5.3845800775
  - # 51
    frequency:     5.4481113650
  - # 52
    frequency:     5.6682563481
  - # 53
    frequency:     5.7965670865
  - # 54
    frequency:     5.8711891566
  - # 55
    frequency:     5.8835300189
  - # 56
    frequency:     5.8933700922
  - # 57
    frequency:     6.0993032212
  - # 58
    frequency:     6.1173599186
  - # 59
    frequency:     6.3653724405
  - # 60
    frequency:     6.4623392892
  - # 61
    frequency:     6.6045253270
  - # 62
    frequency:     6.6833352109
  - # 63
    frequency:     7.1198311965
  - # 64
    frequency:     7.1203011568
  - # 65
    frequency:     7.8178133803
  - # 66
    frequency:     7.8236762219
  - # 67
    frequency:     7.8416368138
  - # 68
    frequency:     7.8493287813
  - # 69
    frequency:     8.0068196790
  - # 70
    frequency:     8.1728227904
  - # 71
    frequency:     8.2575451433
  - # 72
    frequency:     8.3007036625

- q-position: [    0.0859375,    0.0078125,    0.0000000 ]
  weight: 4    
  band:
  - # 1
    frequency:     0.1682138406
  - # 2
    frequency:     0.3526688574
  - # 3
    frequency:     0.4844773256
  - # 4
    frequency:     1.3599006163
  - # 5
    frequency:     1.4874550005
  - # 6
    frequency:     1.5705496213
  - # 7
    frequency:     1.9264232022
  - # 8
    frequency:     2.1416230429
  - # 9
    frequency:     2.2847904513
  - # 10
    frequency:     2.3455130585
  - # 11
    frequency:     2.3548732358
  - # 12
    frequency:     2.3615463089
  - # 13
    frequency:     2.6933426415
  - # 14
    frequency:     2.6971545588
  - # 15
    frequency:     2.7394686039
  - # 16
    frequency:     2.7654664643
  - # 17
    frequency:     2.8899465843
  - # 18
    frequency:     2.8954646388
  - # 19
    frequency:     2.9624000919
  - # 20
    frequency:     3.0608237305
  - # 21
    frequency:     3.0689318952
  - # 22
    frequency:     3.1390271740
  - # 23
    frequency:     3.1825336145
  - # 24
    frequency:     3.2001188862
  - # 25
    frequency:     3.2044802376
  - # 26
    frequency:     3.2432836305
  - # 27
    frequency:     3.3483886492
  - # 28
    frequency:     3.3489892028
  - # 29
    frequency:     3.4275531981
  - # 30
    frequency:     3.4593727309
  - # 31
    frequency:     3.4840159430
  - # 32
    frequency:     3.6535987165
  - # 33
    frequency:     3.6785279627
  - # 34
    frequency:     3.7676672349
  - # 35
    frequency:     3.8888655416
  - # 36
    frequency:     3.9104681516
  - # 37
    frequency:     3.9487670806
  - # 38
    frequency:     4.0342399339
  - # 39
    frequency:     4.1286266606
  - # 40
    frequency:     4.1692706714
  - # 41
    frequency:     4.1794729364
  - # 42
    frequency:     4.2190307900
  - # 43
    frequency:     4.4437428460
  - # 44
    frequency:     4.5331301963
  - # 45
    frequency:     4.5709619192
  - # 46
    frequency:     4.5781234674
  - # 47
    frequency:     4.7320169104
  - # 48
    frequency:     4.8603666369
  - # 49
    frequency:     4.9967441039
  - # 50
    frequency:     5.3954835070
  - # 51
    frequency:     5.4582401658
  - # 52
    frequency:     5.6700625340
  - # 53
    frequency:     5.7853588147
  - # 54
    frequency:     5.8757753511
  - # 55
    frequency:     5.8912883976
  - # 56
    frequency:     5.8971406834
  - # 57
    frequency:     6.0946096311
  - # 58
    frequency:     6.1165895274
  - # 59
    frequency:     6.3564885455
  - # 60
    frequency:     6.4751565629
  - # 61
    frequency:     6.5957006969
  - # 62
    frequency:     6.6925970557
  - # 63
    frequency:     7.1182933505
  - # 64
    frequency:     7.1187254704
  - # 65
    frequency:     7.8185000931
  - # 66
    frequency:     7.8259778814
  - # 67
    frequency:     7.8418577554
  - # 68
    frequency:     7.8509808989
  - # 69
    frequency:     8.0050078491
  - # 70
    frequency:     8.1698290219
  - # 71
    frequency:     8.2541910571
  - # 72
    frequency:     8.2974476754

- q-position: [    0.1015625,    0.0078125,    0.0000000 ]
  weight: 4    
  band:
  - # 1
    frequency:     0.2013438648
  - # 2
    frequency:     0.4179167233
  - # 3
    frequency:     0.5739312379
  - # 4
    frequency:     1.3632803804
  - # 5
    frequency:     1.4956686570
  - # 6
    frequency:     1.5971379168
  - # 7
    frequency:     1.9526076274
  - # 8
    frequency:     2.1207914520
  - # 9
    frequency:     2.2902634559
  - # 10
    frequency:     2.3434570377
  - # 11
    frequency:     2.3528330566
  - # 12
    frequency:     2.3600277613
  - # 13
    frequency:     2.6820631590
  - # 14
    frequency:     2.7147092727
  - # 15
    frequency:     2.7391627279
  - # 16
    frequency:     2.7655191779
  - # 17
    frequency:     2.8807429180
  - # 18
    frequency:     2.9071956452
  - # 19
    frequency:     2.9767071891
  - # 20
    frequency:     3.0511232557
  - # 21
    frequency:     3.0661779449
  - # 22
    frequency:     3.1391830701
  - # 23
    frequency:     3.1978744193
  - # 24
    frequency:     3.2018516619
  - # 25
    frequency:     3.2085546068
  - # 26
    frequency:     3.2478379747
  - # 27
    frequency:     3.3426490549
  - # 28
    frequency:     3.3541867911
  - # 29
    frequency:     3.4220329353
  - # 30
    frequency:     3.4591583148
  - # 31
    frequency:     3.4936791650
  - # 32
    frequency:     3.6539320008
  - # 33
    frequency:     3.6747481765
  - # 34
    frequency:     3.7663538972
  - # 35
    frequency:     3.8822578402
  - # 36
    frequency:     3.9064751625
  - # 37
    frequency:     3.9474742549
  - # 38
    frequency:     4.0261978758
  - # 39
    frequency:     4.1346336056
  - # 40
    frequency:     4.1627169332
  - # 41
    frequency:     4.1738378052
  - # 42
    frequency:     4.2120521660
  - # 43
    frequency:     4.4274829321
  - # 44
    frequency:     4.5335502898
  - # 45
    frequency:     4.5635173920
  - # 46
    frequency:     4.5708999624
  - # 47
    frequency:     4.7205731556
  - # 48
    frequency:     4.8497222126
  - # 49
    frequency:     5.0058146718
  - # 50
    frequency:     5.4080688112
  - # 51
    frequency:     5.4698969888
  - # 52
    frequency:     5.6722461356
  - # 53
    frequency:     5.7738994598
  - # 54
    frequency:     5.8812597253
  - # 55
    frequency:     5.8985839008
  - # 56
    frequency:     5.9016074093
  - # 57
    frequency:     6.0894166221
  - # 58
    frequency:     6.1152568278
  - # 59
    frequency:     6.3479109927
  - # 60
    frequency:     6.4883764368
  - # 61
    frequency:     6.5867353296
  - # 62
    frequency:     6.7020510346
  - # 63
    frequency:     7.1158751858
  - # 64
    frequency:     7.1173866812
  - # 65
    frequency:     7.8193955571
  - # 66
    frequency:     7.8286730343
  - # 67
    frequency:     7.8423683125
  - # 68
    frequency:     7.8527619540
  - # 69
    frequency:     8.0028565480
  - # 70
    frequency:     8.1662640328
  - # 71
    frequency:     8.2501884135
  - # 72
    frequency:     8.2935592669

- q-position: [    0.1171875,    0.0078125,    0.0000000 ]
  weight: 4    
  band:
  - # 1
    frequency:     0.2353111142
  - # 2
    frequency:     0.4828535545
  - # 3
    frequency:     0.6626683530
  - # 4
    frequency:     1.3677747729
  - # 5
    frequency:     1.5058055605
  - # 6
    frequency:     1.6267218679
  - # 7
    frequency:     1.9820724396
  - # 8
    frequency:     2.0987235708
  - # 9
    frequency:     2.2946587211
  - # 10
    frequency:     2.3411867098
  - # 11
    frequency:     2.3504896173
  - # 12
    frequency:     2.3579102908
  - # 13
    frequency:     2.6704499791
  - # 14
    frequency:     2.7347790015
  - # 15
    frequency:     2.7392874907
  - # 16
    frequency:     2.7642902927
  - # 17
    frequency:     2.8714451375
  - # 18
    frequency:     2.9207202584
  - # 19
    frequency:     2.9928358220
  - # 20
    frequency:     3.0303054380
  - # 21
    frequency:     3.0722636680
  - # 22
    frequency:     3.1383419734
  - # 23
    frequency:     3.2038427756
  - # 24
    frequency:     3.2118529942
  - # 25
    frequency:     3.2135588224
  - # 26
    frequency:     3.2555885383
  - # 27
    frequency:     3.3386025904
  - # 28
    frequency:     3.3608639743
  - # 29
    frequency:     3.4161685830
  - # 30
    frequency:     3.4583470129
  - # 31
    frequency:     3.5020920203
  - # 32
    frequency:     3.6543457484
  - # 33
    frequency:     3.6703946805
  - # 34
    frequency:     3.7648848422
  - # 35
    frequency:     3.8750272050
  - # 36
    frequency:     3.9015763968
  - # 37
    frequency:     3.9460125872
  - # 38
    frequency:     4.0184236158
  - # 39
    frequency:     4.1397091457
  - # 40
    frequency:     4.1554211785
  - # 41
    frequency:     4.1669969479
  - # 42
    frequency:     4.2041821674
  - # 43
    frequency:     4.4099376961
  - # 44
    frequency:     4.5329071498
  - # 45
    frequency:     4.5552136441
  - # 46
    frequency:     4.5622771164
  - # 47
    frequency:     4.7078473250
  - # 48
    frequency:     4.8379030259
  - # 49
    frequency:     5.0161005066
  - # 50
    frequency:     5.4221335176
  - # 51
    frequency:     5.4828807887
  - # 52
    frequency:     5.6748141815
  - # 53
    frequency:     5.7622005586
  - # 54
    frequency:     5.8876313788
  - # 55
    frequency:     5.9053924285
  - # 56
    frequency:     5.9067409513
  - # 57
    frequency:     6.0837413238
  - # 58
    frequency:     6.1133601388
  - # 59
    frequency:     6.3396094408
  - # 60
    frequency:     6.5019890238
  - # 61
    frequency:     6.5775941060
  - # 62
    frequency:     6.7117127004
  - # 63
    frequency:     7.1130357158
  - # 64
    frequency:     7.1158147967
  - # 65
    frequency:     7.8204863659
  - # 66
    frequency:     7.8317770557
  - # 67
    frequency:     7.8431924858
  - # 68
    frequency:     7.8546706395
  - # 69
    frequency:     8.0003779806
  - # 70
    frequency:     8.1621427688
  - # 71
    frequency:     8.2455493276
  - # 72
    frequency:     8.2890486466

- q-position: [    0.1328125,    0.0078125,    0.0000000 ]
  weight: 4    
  band:
  - # 1
    frequency:     0.2701890351
  - # 2
    frequency:     0.5475222550
  - # 3
    frequency:     0.7507166530
  - # 4
    frequency:     1.3735183658
  - # 5
    frequency:     1.5177554563
  - # 6
    frequency:     1.6590533164
  - # 7
    frequency:     2.0144449767
  - # 8
    frequency:     2.0754508059
  - # 9
    frequency:     2.2980453878
  - # 10
    frequency:     2.3387532554
  - # 11
    frequency:     2.3477314175
  - # 12
    frequency:     2.3551528798
  - # 13
    frequency:     2.6586638938
  - # 14
    frequency:     2.7399619753
  - # 15
    frequency:     2.7571901014
  - # 16
    frequency:     2.7617544512
  - # 17
    frequency:     2.8622978356
  - # 18
    frequency:     2.9359680396
  - # 19
    frequency:     3.0065208567
  - # 20
    frequency:     3.0106326593
  - # 21
    frequency:     3.0790213400
  - # 22
    frequency:     3.1364337385
  - # 23
    frequency:     3.2061118322
  - # 24
    frequency:     3.2194769318
  - # 25
    frequency:     3.2224764217
  - # 26
    frequency:     3.2682783351
  - # 27
    frequency:     3.3367845822
  - # 28
    frequency:     3.3683708761
  - # 29
    frequency:     3.4099859520
  - # 30
    frequency:     3.4569168141
  - # 31
    frequency:     3.5091912664
  - # 32
    frequency:     3.6548515341
  - # 33
    frequency:     3.6654935310
  - # 34
    frequency:     3.7632927659
  - # 35
    frequency:     3.8671559387
  - # 36
    frequency:     3.8959487778
  - # 37
    frequency:     3.9444051769
  - # 38
    frequency:     4.0107923811
  - # 39
    frequency:     4.1437726734
  - # 40
    frequency:     4.1474379715
  - # 41
    frequency:     4.1589366149
  - # 42
    frequency:     4.1955210400
  - # 43
    frequency:     4.3911564125
  - # 44
    frequency:     4.5312893901
  - # 45
    frequency:     4.5461331819
  - # 46
    frequency:     4.5522579204
  - # 47
    frequency:     4.6940399024
  - # 48
    frequency:     4.8250964829
  - # 49
    frequency:     5.0274918995
  - # 50
    frequency:     5.4374808170
  - # 51
    frequency:     5.4969963628
  - # 52
    frequency:     5.6777735860
  - # 53
    frequency:     5.7502721406
  - # 54
    frequency:     5.8948772037
  - # 55
    frequency:     5.9116897375
  - # 56
    frequency:     5.9125087903
  - # 57
    frequency:     6.0776028091
  - # 58
    frequency:     6.1108972414
  - # 59
    frequency:     6.3315508840
  - # 60
    frequency:     6.5159821511