phonopy:
  version: 1.11.12
  configuration:
    cell_filename: "POSCAR-orig"
    dim: "2 2 1"
    create_displacements: ".true."

supercell_matrix:
- [   2,   0,   0 ]
- [   0,   2,   0 ]
- [   0,   0,   1 ]

primitive_cell:
  lattice:
  - [     3.551000000000000,     0.000000000000000,     0.000000000000000 ] # a
  - [     0.000000000000000,     6.149000000000000,     0.000000000000000 ] # b
  - [     0.000000000000000,     0.000000000000000,    16.000000000000000 ] # c
  points:
  - symbol: Te # 1
    coordinates: [  0.000000000000000,  0.666659619450317,  0.112828750000000 ]
    mass: 127.600000
  - symbol: Te # 2
    coordinates: [  0.000000000000000,  0.666659619450317,  0.887171250000000 ]
    mass: 127.600000
  - symbol: Te # 3
    coordinates: [  0.500000000000000,  0.166657993169621,  0.112827500000000 ]
    mass: 127.600000
  - symbol: Te # 4
    coordinates: [  0.500000000000000,  0.166657993169621,  0.887172500000000 ]
    mass: 127.600000
  - symbol: Mo # 5
    coordinates: [  0.500000000000000,  0.500014636526264,  0.000000000000000 ]
    mass: 95.960000
  - symbol: Mo # 6
    coordinates: [  0.000000000000000,  0.000008131403480,  0.000000000000000 ]
    mass: 95.960000
  reciprocal_lattice: # without 2pi
  - [     0.281610813855252,     0.000000000000000,     0.000000000000000 ] # a*
  - [     0.000000000000000,     0.162628069604814,     0.000000000000000 ] # b*
  - [     0.000000000000000,     0.000000000000000,     0.062500000000000 ] # c*

unit_cell:
  lattice:
  - [     3.551000000000000,     0.000000000000000,     0.000000000000000 ] # a
  - [     0.000000000000000,     6.149000000000000,     0.000000000000000 ] # b
  - [     0.000000000000000,     0.000000000000000,    16.000000000000000 ] # c
  points:
  - symbol: Te # 1
    coordinates: [  0.000000000000000,  0.666659619450317,  0.112828750000000 ]
    mass: 127.600000
    reduced_to: 1
  - symbol: Te # 2
    coordinates: [  0.000000000000000,  0.666659619450317, -0.112828750000000 ]
    mass: 127.600000
    reduced_to: 2
  - symbol: Te # 3
    coordinates: [  0.500000000000000,  0.166657993169621,  0.112827500000000 ]
    mass: 127.600000
    reduced_to: 3
  - symbol: Te # 4
    coordinates: [  0.500000000000000,  0.166657993169621, -0.112827500000000 ]
    mass: 127.600000
    reduced_to: 4
  - symbol: Mo # 5
    coordinates: [  0.500000000000000,  0.500014636526264,  0.000000000000000 ]
    mass: 95.960000
    reduced_to: 5
  - symbol: Mo # 6
    coordinates: [  0.000000000000000,  0.000008131403480,  0.000000000000000 ]
    mass: 95.960000
    reduced_to: 6

supercell:
  lattice:
  - [     7.102000000000000,     0.000000000000000,     0.000000000000000 ] # a
  - [     0.000000000000000,    12.298000000000000,     0.000000000000000 ] # b
  - [     0.000000000000000,     0.000000000000000,    16.000000000000000 ] # c
  points:
  - symbol: Te # 1
    coordinates: [  0.000000000000000,  0.333329809725159,  0.112828750000000 ]
    mass: 127.600000
    reduced_to: 1
  - symbol: Te # 2
    coordinates: [  0.500000000000000,  0.333329809725159,  0.112828750000000 ]
    mass: 127.600000
    reduced_to: 1
  - symbol: Te # 3
    coordinates: [  0.000000000000000,  0.833329809725159,  0.112828750000000 ]
    mass: 127.600000
    reduced_to: 1
  - symbol: Te # 4
    coordinates: [  0.500000000000000,  0.833329809725159,  0.112828750000000 ]
    mass: 127.600000
    reduced_to: 1
  - symbol: Te # 5
    coordinates: [  0.000000000000000,  0.333329809725159,  0.887171250000000 ]
    mass: 127.600000
    reduced_to: 5
  - symbol: Te # 6
    coordinates: [  0.500000000000000,  0.333329809725159,  0.887171250000000 ]
    mass: 127.600000
    reduced_to: 5
  - symbol: Te # 7
    coordinates: [  0.000000000000000,  0.833329809725159,  0.887171250000000 ]
    mass: 127.600000
    reduced_to: 5
  - symbol: Te # 8
    coordinates: [  0.500000000000000,  0.833329809725159,  0.887171250000000 ]
    mass: 127.600000
    reduced_to: 5
  - symbol: Te # 9
    coordinates: [  0.250000000000000,  0.083328996584811,  0.112827500000000 ]
    mass: 127.600000
    reduced_to: 9
  - symbol: Te # 10
    coordinates: [  0.750000000000000,  0.083328996584811,  0.112827500000000 ]
    mass: 127.600000
    reduced_to: 9
  - symbol: Te # 11
    coordinates: [  0.250000000000000,  0.583328996584811,  0.112827500000000 ]
    mass: 127.600000
    reduced_to: 9
  - symbol: Te # 12
    coordinates: [  0.750000000000000,  0.583328996584811,  0.112827500000000 ]
    mass: 127.600000
    reduced_to: 9
  - symbol: Te # 13
    coordinates: [  0.250000000000000,  0.083328996584811,  0.887172500000000 ]
    mass: 127.600000
    reduced_to: 13
  - symbol: Te # 14
    coordinates: [  0.750000000000000,  0.083328996584811,  0.887172500000000 ]
    mass: 127.600000
    reduced_to: 13
  - symbol: Te # 15
    coordinates: [  0.250000000000000,  0.583328996584811,  0.887172500000000 ]
    mass: 127.600000
    reduced_to: 13
  - symbol: Te # 16
    coordinates: [  0.750000000000000,  0.583328996584811,  0.887172500000000 ]
    mass: 127.600000
    reduced_to: 13
  - symbol: Mo # 17
    coordinates: [  0.250000000000000,  0.250007318263132,  0.000000000000000 ]
    mass: 95.960000
    reduced_to: 17
  - symbol: Mo # 18
    coordinates: [  0.750000000000000,  0.250007318263132,  0.000000000000000 ]
    mass: 95.960000
    reduced_to: 17
  - symbol: Mo # 19
    coordinates: [  0.250000000000000,  0.750007318263132,  0.000000000000000 ]
    mass: 95.960000
    reduced_to: 17
  - symbol: Mo # 20
    coordinates: [  0.750000000000000,  0.750007318263132,  0.000000000000000 ]
    mass: 95.960000
    reduced_to: 17
  - symbol: Mo # 21
    coordinates: [  0.000000000000000,  0.000004065701740,  0.000000000000000 ]
    mass: 95.960000
    reduced_to: 21
  - symbol: Mo # 22
    coordinates: [  0.500000000000000,  0.000004065701740,  0.000000000000000 ]
    mass: 95.960000
    reduced_to: 21
  - symbol: Mo # 23
    coordinates: [  0.000000000000000,  0.500004065701740,  0.000000000000000 ]
    mass: 95.960000
    reduced_to: 21
  - symbol: Mo # 24
    coordinates: [  0.500000000000000,  0.500004065701740,  0.000000000000000 ]
    mass: 95.960000
    reduced_to: 21
