# Thermal properties / unit cell (natom)

unit:
  temperature:   K
  free_energy:   kJ/mol
  entropy:       J/K/mol
  heat_capacity: J/K/mol

natom:    24
num_modes: 294912
num_integrated_modes: 294892

zero_point_energy:      62.3838279
high_T_entropy:       2478.2641039

thermal_properties:
- temperature:         0.0000000
  free_energy:        62.3838279
  entropy:             0.0000000
  heat_capacity:       0.0000000
  energy:             62.3838279

- temperature:        10.0000000
  free_energy:        62.3680893
  entropy:             4.4613722
  heat_capacity:       8.1736505
  energy:             62.4127030

- temperature:        20.0000000
  free_energy:        62.2679278
  entropy:            17.2711562
  heat_capacity:      36.6275444
  energy:             62.6133509

- temperature:        30.0000000
  free_energy:        61.9831155
  entropy:            41.6907606
  heat_capacity:      90.6401782
  energy:             63.2338383

- temperature:        40.0000000
  free_energy:        61.3993167
  entropy:            76.4730783
  heat_capacity:     154.5634091
  energy:             64.4582398

- temperature:        50.0000000
  free_energy:        60.4323608
  entropy:           117.6775780
  heat_capacity:     216.0978525
  energy:             66.3162397

- temperature:        60.0000000
  free_energy:        59.0354248
  entropy:           162.0242003
  heat_capacity:     270.7447174
  energy:             68.7568768

- temperature:        70.0000000
  free_energy:        57.1886126
  entropy:           207.3778185
  heat_capacity:     317.6088218
  energy:             71.7050599

- temperature:        80.0000000
  free_energy:        54.8888803
  entropy:           252.4455166
  heat_capacity:     357.1268445
  energy:             75.0845217

- temperature:        90.0000000
  free_energy:        52.1431951
  entropy:           296.4763873
  heat_capacity:     390.1892373
  energy:             78.8260700

- temperature:       100.0000000
  free_energy:        48.9642037
  entropy:           339.0587413
  heat_capacity:     417.7807218
  energy:             82.8700778

- temperature:       110.0000000
  free_energy:        45.3675345
  entropy:           379.9910087
  heat_capacity:     440.8264099
  energy:             87.1665455

- temperature:       120.0000000
  free_energy:        41.3701355
  entropy:           419.2001909
  heat_capacity:     460.1333886
  energy:             91.6741584

- temperature:       130.0000000
  free_energy:        36.9892653
  entropy:           456.6904272
  heat_capacity:     476.3785827
  energy:             96.3590209

- temperature:       140.0000000
  free_energy:        32.2418963
  entropy:           492.5106520
  heat_capacity:     490.1175312
  energy:            101.1933875

- temperature:       150.0000000
  free_energy:        27.1443753
  entropy:           526.7343598
  heat_capacity:     501.8009138
  energy:            106.1545292

- temperature:       160.0000000
  free_energy:        21.7122462
  entropy:           559.4470486
  heat_capacity:     511.7924132
  energy:            111.2237740

- temperature:       170.0000000
  free_energy:        15.9601716
  entropy:           590.7385265
  heat_capacity:     520.3851231
  energy:            116.3857211

- temperature:       180.0000000
  free_energy:         9.9019144
  entropy:           620.6982931
  heat_capacity:     527.8155420
  energy:            121.6276072

- temperature:       190.0000000
  free_energy:         3.5503559
  entropy:           649.4128614
  heat_capacity:     534.2750520
  energy:            126.9387996

- temperature:       200.0000000
  free_energy:        -3.0824663
  entropy:           676.9642978
  heat_capacity:     539.9191341
  energy:            132.3103933

- temperature:       210.0000000
  free_energy:        -9.9853099
  entropy:           703.4295218
  heat_capacity:     544.8746793
  energy:            137.7348896

- temperature:       220.0000000
  free_energy:       -17.1476751
  entropy:           728.8800715
  heat_capacity:     549.2457566
  energy:            143.2059406

- temperature:       230.0000000
  free_energy:       -24.5597504
  entropy:           753.3821500
  heat_capacity:     553.1181543
  energy:            148.7181441

- temperature:       240.0000000
  free_energy:       -32.2123606
  entropy:           776.9968348
  heat_capacity:     556.5629561
  energy:            154.2668797

- temperature:       250.0000000
  free_energy:       -40.0969171
  entropy:           799.7803737
  heat_capacity:     559.6393643
  energy:            159.8481763

- temperature:       260.0000000
  free_energy:       -48.2053706
  entropy:           821.7845219
  heat_capacity:     562.3969342
  energy:            165.4586051

- temperature:       270.0000000
  free_energy:       -56.5301687
  entropy:           843.0568910
  heat_capacity:     564.8773505
  energy:            171.0951919

- temperature:       280.0000000
  free_energy:       -65.0642156
  entropy:           863.6412924
  heat_capacity:     567.1158444
  energy:            176.7553463

- temperature:       290.0000000
  free_energy:       -73.8008361
  entropy:           883.5780644
  heat_capacity:     569.1423300
  energy:            182.4368026

- temperature:       300.0000000
  free_energy:       -82.7337423
  entropy:           902.9043799
  heat_capacity:     570.9823192
  energy:            188.1375716

- temperature:       310.0000000
  free_energy:       -91.8570034
  entropy:           921.6545288
  heat_capacity:     572.6576629
  energy:            193.8559005

- temperature:       320.0000000
  free_energy:      -101.1650182
  entropy:           939.8601787
  heat_capacity:     574.1871523
  energy:            199.5902390

- temperature:       330.0000000
  free_energy:      -110.6524899
  entropy:           957.5506107
  heat_capacity:     575.5870112
  energy:            205.3392117

- temperature:       340.0000000
  free_energy:      -120.3144036
  entropy:           974.7529346
  heat_capacity:     576.8712993
  energy:            211.1015942

- temperature:       350.0000000
  free_energy:      -130.1460055
  entropy:           991.4922824
  heat_capacity:     578.0522448
  energy:            216.8762933

- temperature:       360.0000000
  free_energy:      -140.1427839
  entropy:          1007.7919840
  heat_capacity:     579.1405199
  energy:            222.6623303

- temperature:       370.0000000
  free_energy:      -150.3004521
  entropy:          1023.6737251
  heat_capacity:     580.1454692
  energy:            228.4588261

- temperature:       380.0000000
  free_energy:      -160.6149327
  entropy:          1039.1576897
  heat_capacity:     581.0753011
  energy:            234.2649894

- temperature:       390.0000000
  free_energy:      -171.0823429
  entropy:          1054.2626893
  heat_capacity:     581.9372477
  energy:            240.0801060

- temperature:       400.0000000
  free_energy:      -181.6989819
  entropy:          1069.0062784
  heat_capacity:     582.7376998
  energy:            245.9035295

- temperature:       410.0000000
  free_energy:      -192.4613185
  entropy:          1083.4048596
  heat_capacity:     583.4823201
  energy:            251.7346739

- temperature:       420.0000000
  free_energy:      -203.3659803
  entropy:          1097.4737783
  heat_capacity:     584.1761397
  energy:            257.5730066

- temperature:       430.0000000
  free_energy:      -214.4097432
  entropy:          1111.2274083
  heat_capacity:     584.8236404
  energy:            263.4180424

- temperature:       440.0000000
  free_energy:      -225.5895225
  entropy:          1124.6792294
  heat_capacity:     585.4288241
  energy:            269.2693384

- temperature:       450.0000000
  free_energy:      -236.9023641
  entropy:          1137.8418974
  heat_capacity:     585.9952729
  energy:            275.1264898

- temperature:       460.0000000
  free_energy:      -248.3454364
  entropy:          1150.7273084
  heat_capacity:     586.5262007
  energy:            280.9891255

- temperature:       470.0000000
  free_energy:      -259.9160234
  entropy:          1163.3466563
  heat_capacity:     587.0244967
  energy:            286.8569050

- temperature:       480.0000000
  free_energy:      -271.6115178
  entropy:          1175.7104858
  heat_capacity:     587.4927646
  energy:            292.7295154

- temperature:       490.0000000
  free_energy:      -283.4294146
  entropy:          1187.8287402
  heat_capacity:     587.9333546
  energy:            298.6066681

- temperature:       500.0000000
  free_energy:      -295.3673054
  entropy:          1199.7108054
  heat_capacity:     588.3483933
  energy:            304.4880973

- temperature:       510.0000000
  free_energy:      -307.4228730
  entropy:          1211.3655496
  heat_capacity:     588.7398076
  energy:            310.3735572

- temperature:       520.0000000
  free_energy:      -319.5938867
  entropy:          1222.8013600
  heat_capacity:     589.1093476
  energy:            316.2628206

- temperature:       530.0000000
  free_energy:      -331.8781970
  entropy:          1234.0261765
  heat_capacity:     589.4586047
  energy:            322.1556766

- temperature:       540.0000000
  free_energy:      -344.2737320
  entropy:          1245.0475220
  heat_capacity:     589.7890293
  energy:            328.0519299

- temperature:       550.0000000
  free_energy:      -356.7784930
  entropy:          1255.8725306
  heat_capacity:     590.1019448
  energy:            333.9513988

- temperature:       560.0000000
  free_energy:      -369.3905508
  entropy:          1266.5079736
  heat_capacity:     590.3985611
  energy:            339.8539145

- temperature:       570.0000000
  free_energy:      -382.1080421
  entropy:          1276.9602833
  heat_capacity:     590.6799856
  energy:            345.7593194

- temperature:       580.0000000
  free_energy:      -394.9291664
  entropy:          1287.2355747
  heat_capacity:     590.9472340
  energy:            351.6674669

- temperature:       590.0000000
  free_energy:      -407.8521829
  entropy:          1297.3396659
  heat_capacity:     591.2012386
  energy:            357.5782200

- temperature:       600.0000000
  free_energy:      -420.8754075
  entropy:          1307.2780966
  heat_capacity:     591.4428567
  energy:            363.4914504

- temperature:       610.0000000
  free_energy:      -433.9972103
  entropy:          1317.0561454
  heat_capacity:     591.6728775
  energy:            369.4070384

- temperature:       620.0000000
  free_energy:      -447.2160126
  entropy:          1326.6788458
  heat_capacity:     591.8920289
  energy:            375.3248717

- temperature:       630.0000000
  free_energy:      -460.5302854
  entropy:          1336.1510007
  heat_capacity:     592.1009824
  energy:            381.2448450

- temperature:       640.0000000
  free_energy:      -473.9385462
  entropy:          1345.4771963
  heat_capacity:     592.3003589
  energy:            387.1668595

- temperature:       650.0000000
  free_energy:      -487.4393574
  entropy:          1354.6618148
  heat_capacity:     592.4907328
  energy:            393.0908222

- temperature:       660.0000000
  free_energy:      -501.0313245
  entropy:          1363.7090461
  heat_capacity:     592.6726362
  energy:            399.0166459

- temperature:       670.0000000
  free_energy:      -514.7130938
  entropy:          1372.6228987
  heat_capacity:     592.8465626
  energy:            404.9442483

- temperature:       680.0000000
  free_energy:      -528.4833507
  entropy:          1381.4072100
  heat_capacity:     593.0129703
  energy:            410.8735521

- temperature:       690.0000000
  free_energy:      -542.3408184
  entropy:          1390.0656559
  heat_capacity:     593.1722851
  energy:            416.8044841

- temperature:       700.0000000
  free_energy:      -556.2842560
  entropy:          1398.6017593
  heat_capacity:     593.3249033
  energy:            422.7369755

- temperature:       710.0000000
  free_energy:      -570.3124571
  entropy:          1407.0188988
  heat_capacity:     593.4711940
  energy:            428.6709611

- temperature:       720.0000000
  free_energy:      -584.4242483
  entropy:          1415.3203162
  heat_capacity:     593.6115011
  energy:            434.6063794

- temperature:       730.0000000
  free_energy:      -598.6184881
  entropy:          1423.5091237
  heat_capacity:     593.7461456
  energy:            440.5431722

- temperature:       740.0000000
  free_energy:      -612.8940654
  entropy:          1431.5883106
  heat_capacity:     593.8754275
  energy:            446.4812845

- temperature:       750.0000000
  free_energy:      -627.2498984
  entropy:          1439.5607497
  heat_capacity:     593.9996270
  energy:            452.4206639

- temperature:       760.0000000
  free_energy:      -641.6849337
  entropy:          1447.4292035
  heat_capacity:     594.1190064
  energy:            458.3612609

- temperature:       770.0000000
  free_energy:      -656.1981448
  entropy:          1455.1963292
  heat_capacity:     594.2338113
  energy:            464.3030287

- temperature:       780.0000000
  free_energy:      -670.7885311
  entropy:          1462.8646843
  heat_capacity:     594.3442720
  energy:            470.2459227

- temperature:       790.0000000
  free_energy:      -685.4551174
  entropy:          1470.4367315
  heat_capacity:     594.4506043
  energy:            476.1899004

- temperature:       800.0000000
  free_energy:      -700.1969526
  entropy:          1477.9148429
  heat_capacity:     594.5530110
  energy:            482.1349217

- temperature:       810.0000000
  free_energy:      -715.0131088
  entropy:          1485.3013049
  heat_capacity:     594.6516825
  energy:            488.0809482

- temperature:       820.0000000
  free_energy:      -729.9026806
  entropy:          1492.5983220
  heat_capacity:     594.7467979
  energy:            494.0279435

- temperature:       830.0000000
  free_energy:      -744.8647842
  entropy:          1499.8080205
  heat_capacity:     594.8385257
  energy:            499.9758728

- temperature:       840.0000000
  free_energy:      -759.8985568
  entropy:          1506.9324524
  heat_capacity:     594.9270246
  energy:            505.9247032

- temperature:       850.0000000
  free_energy:      -775.0031556
  entropy:          1513.9735985
  heat_capacity:     595.0124440
  energy:            511.8744031

- temperature:       860.0000000
  free_energy:      -790.1777575
  entropy:          1520.9333719
  heat_capacity:     595.0949248
  energy:            517.8249423

- temperature:       870.0000000
  free_energy:      -805.4215580
  entropy:          1527.8136209
  heat_capacity:     595.1746002
  energy:            523.7762922

- temperature:       880.0000000
  free_energy:      -820.7337708
  entropy:          1534.6161320
  heat_capacity:     595.2515955
  energy:            529.7284254

- temperature:       890.0000000
  free_energy:      -836.1136273
  entropy:          1541.3426324
  heat_capacity:     595.3260296
  energy:            535.6813156

- temperature:       900.0000000
  free_energy:      -851.5603757
  entropy:          1547.9947928
  heat_capacity:     595.3980144
  energy:            541.6349378

- temperature:       910.0000000
  free_energy:      -867.0732807
  entropy:          1554.5742294
  heat_capacity:     595.4676562
  energy:            547.5892681

- temperature:       920.0000000
  free_energy:      -882.6516231
  entropy:          1561.0825071
  heat_capacity:     595.5350554
  energy:            553.5442835

- temperature:       930.0000000
  free_energy:      -898.2946987
  entropy:          1567.5211406
  heat_capacity:     595.6003070
  energy:            559.4999620

- temperature:       940.0000000
  free_energy:      -914.0018186
  entropy:          1573.8915972
  heat_capacity:     595.6635011
  energy:            565.4562827

- temperature:       950.0000000
  free_energy:      -929.7723082
  entropy:          1580.1952986
  heat_capacity:     595.7247233
  energy:            571.4132255

- temperature:       960.0000000
  free_energy:      -945.6055067
  entropy:          1586.4336225
  heat_capacity:     595.7840546
  energy:            577.3707709

- temperature:       970.0000000
  free_energy:      -961.5007671
  entropy:          1592.6079048
  heat_capacity:     595.8415719
  energy:            583.3289005

- temperature:       980.0000000
  free_energy:      -977.4574556
  entropy:          1598.7194410
  heat_capacity:     595.8973484
  energy:            589.2875965

- temperature:       990.0000000
  free_energy:      -993.4749510
  entropy:          1604.7694878
  heat_capacity:     595.9514535
  energy:            595.2468419

- temperature:      1000.0000000
  free_energy:     -1009.5526445
  entropy:          1610.7592647
  heat_capacity:     596.0039531
  energy:            601.2066203
