MoTe2 with Spin orbit Phonon calculatio 
           1
     6.904000    0.000000    0.000000
     0.000000   12.736000    0.000000
     0.000000    0.000000   16.000000
   Te   Mo
  16   8
Direct configuration=     1
   0.25000000  0.05081658  0.12913313
   0.75000000  0.05081658  0.12913313
   0.25000000  0.55081658  0.12913313
   0.75000000  0.55081658  0.12913313
   0.25000000  0.37457836  0.90758437
   0.75000000  0.37457836  0.90758437
   0.25000000  0.87457836  0.90758437
   0.75000000  0.87457836  0.90758437
   0.00000000  0.12870524  0.87086563
   0.50000000  0.12870524  0.87086563
   0.00000000  0.62870524  0.87086563
   0.50000000  0.62870524  0.87086563
   0.00000000  0.30494033  0.09241625
   0.50000000  0.30494033  0.09241625
   0.00000000  0.80494033  0.09241625
   0.50000000  0.80494033  0.09241625
   0.25000000  0.18029837  0.99406750
   0.75000000  0.18029837  0.99406750
   0.25000000  0.68029837  0.99406750
   0.75000000  0.68029837  0.99406750
   0.00000000  0.99921954  0.00593312
   0.50000000  0.99921954  0.00593312
   0.00000000  0.49921954  0.00593312
   0.50000000  0.49921954  0.00593312
