   6   6   0   0
  0.5861956E+02  0.3452000E-09  0.6368000E-09  0.1600000E-08  0.5000000E-15
  1.000000000000000E-004
  CAR 
 2D MoTe2 in a box                       
      4.32520178    -13.26125055  301      0.40703678      1.00000000
    -13.261  0.0000E+00  0.0000E+00
    -13.203  0.0000E+00  0.0000E+00
    -13.144  0.0000E+00  0.0000E+00
    -13.085  0.0000E+00  0.0000E+00
    -13.027  0.0000E+00  0.0000E+00
    -12.968  0.0000E+00  0.0000E+00
    -12.910  0.0000E+00  0.0000E+00
    -12.851  0.0000E+00  0.0000E+00
    -12.792  0.0000E+00  0.0000E+00
    -12.734  0.0000E+00  0.0000E+00
    -12.675  0.1655E-06  0.9704E-08
    -12.616  0.1683E-05  0.1084E-06
    -12.558  0.1579E-04  0.1034E-05
    -12.499  0.1311E-03  0.8721E-05
    -12.441  0.5695E-03  0.4210E-04
    -12.382  0.1005E-02  0.1010E-03
    -12.323  0.1081E-02  0.1644E-03
    -12.265  0.1079E-02  0.2277E-03
    -12.206  0.1250E-02  0.3010E-03
    -12.147  0.1084E-02  0.3646E-03
    -12.089  0.1045E-02  0.4259E-03
    -12.030  0.1298E-02  0.5021E-03
    -11.972  0.1352E-02  0.5814E-03
    -11.913  0.1134E-02  0.6480E-03
    -11.854  0.1116E-02  0.7135E-03
    -11.796  0.1259E-02  0.7874E-03
    -11.737  0.1330E-02  0.8654E-03
    -11.678  0.1290E-02  0.9412E-03
    -11.620  0.1286E-02  0.1017E-02
    -11.561  0.1798E-02  0.1122E-02
    -11.503  0.3199E-02  0.1310E-02
    -11.444  0.3819E-02  0.1534E-02
    -11.385  0.3255E-02  0.1725E-02
    -11.327  0.2826E-02  0.1890E-02
    -11.268  0.3286E-02  0.2083E-02
    -11.209  0.3289E-02  0.2276E-02
    -11.151  0.3336E-02  0.2472E-02
    -11.092  0.3472E-02  0.2676E-02
    -11.034  0.3490E-02  0.2881E-02
    -10.975  0.2749E-02  0.3042E-02
    -10.916  0.3176E-02  0.3229E-02
    -10.858  0.3384E-02  0.3427E-02
    -10.799  0.3983E-02  0.3661E-02
    -10.741  0.4963E-02  0.3952E-02
    -10.682  0.5396E-02  0.4269E-02
    -10.623  0.5314E-02  0.4581E-02
    -10.565  0.6155E-02  0.4942E-02
    -10.506  0.8145E-02  0.5420E-02
    -10.447  0.7481E-02  0.5858E-02
    -10.389  0.4979E-02  0.6151E-02
    -10.330  0.4119E-02  0.6393E-02
    -10.272  0.3555E-02  0.6602E-02
    -10.213  0.4015E-02  0.6838E-02
    -10.154  0.4189E-02  0.7084E-02
    -10.096  0.3451E-02  0.7286E-02
    -10.037  0.4293E-02  0.7538E-02
     -9.978  0.4477E-02  0.7801E-02
     -9.920  0.2676E-02  0.7958E-02
     -9.861  0.6235E-03  0.7995E-02
     -9.803  0.7376E-04  0.7999E-02
     -9.744  0.3266E-05  0.8000E-02
     -9.685  0.0000E+00  0.8000E-02
     -9.627  0.0000E+00  0.8000E-02
     -9.568  0.0000E+00  0.8000E-02
     -9.509  0.0000E+00  0.8000E-02
     -9.451  0.0000E+00  0.8000E-02
     -9.392  0.0000E+00  0.8000E-02
     -9.334  0.0000E+00  0.8000E-02
     -9.275  0.0000E+00  0.8000E-02
     -9.216  0.0000E+00  0.8000E-02
     -9.158  0.0000E+00  0.8000E-02
     -9.099  0.0000E+00  0.8000E-02
     -9.041  0.0000E+00  0.8000E-02
     -8.982  0.0000E+00  0.8000E-02
     -8.923  0.0000E+00  0.8000E-02
     -8.865  0.0000E+00  0.8000E-02
     -8.806  0.0000E+00  0.8000E-02
     -8.747  0.0000E+00  0.8000E-02
     -8.689  0.0000E+00  0.8000E-02
     -8.630  0.0000E+00  0.8000E-02
     -8.572  0.0000E+00  0.8000E-02
     -8.513  0.0000E+00  0.8000E-02
     -8.454  0.0000E+00  0.8000E-02
     -8.396  0.0000E+00  0.8000E-02
     -8.337  0.0000E+00  0.8000E-02
     -8.278  0.0000E+00  0.8000E-02
     -8.220  0.0000E+00  0.8000E-02
     -8.161  0.0000E+00  0.8000E-02
     -8.103  0.0000E+00  0.8000E-02
     -8.044  0.0000E+00  0.8000E-02
     -7.985  0.0000E+00  0.8000E-02
     -7.927  0.0000E+00  0.8000E-02
     -7.868  0.0000E+00  0.8000E-02
     -7.809  0.0000E+00  0.8000E-02
     -7.751  0.0000E+00  0.8000E-02
     -7.692  0.0000E+00  0.8000E-02
     -7.634  0.0000E+00  0.8000E-02
     -7.575  0.0000E+00  0.8000E-02
     -7.516  0.0000E+00  0.8000E-02
     -7.458  0.0000E+00  0.8000E-02
     -7.399  0.0000E+00  0.8000E-02
     -7.340  0.0000E+00  0.8000E-02
     -7.282  0.0000E+00  0.8000E-02
     -7.223  0.0000E+00  0.8000E-02
     -7.165  0.0000E+00  0.8000E-02
     -7.106  0.0000E+00  0.8000E-02
     -7.047  0.0000E+00  0.8000E-02
     -6.989  0.0000E+00  0.8000E-02
     -6.930  0.0000E+00  0.8000E-02
     -6.872  0.0000E+00  0.8000E-02
     -6.813  0.0000E+00  0.8000E-02
     -6.754  0.0000E+00  0.8000E-02
     -6.696  0.0000E+00  0.8000E-02
     -6.637  0.0000E+00  0.8000E-02
     -6.578  0.0000E+00  0.8000E-02
     -6.520  0.0000E+00  0.8000E-02
     -6.461  0.0000E+00  0.8000E-02
     -6.403  0.0000E+00  0.8000E-02
     -6.344  0.0000E+00  0.8000E-02
     -6.285  0.0000E+00  0.8000E-02
     -6.227  0.0000E+00  0.8000E-02
     -6.168  0.0000E+00  0.8000E-02
     -6.109  0.0000E+00  0.8000E-02
     -6.051  0.0000E+00  0.8000E-02
     -5.992  0.0000E+00  0.8000E-02
     -5.934  0.0000E+00  0.8000E-02
     -5.875  0.0000E+00  0.8000E-02
     -5.816  0.0000E+00  0.8000E-02
     -5.758  0.0000E+00  0.8000E-02
     -5.699  0.0000E+00  0.8000E-02
     -5.640  0.1833E-07  0.8000E-02
     -5.582  0.2264E-06  0.8000E-02
     -5.523  0.2227E-05  0.8000E-02
     -5.465  0.2114E-04  0.8001E-02
     -5.406  0.1599E-03  0.8011E-02
     -5.347  0.5231E-03  0.8041E-02
     -5.289  0.8559E-03  0.8092E-02
     -5.230  0.1716E-02  0.8192E-02
     -5.171  0.2064E-02  0.8313E-02
     -5.113  0.1859E-02  0.8422E-02
     -5.054  0.1618E-02  0.8517E-02
     -4.996  0.1817E-02  0.8624E-02
     -4.937  0.2208E-02  0.8753E-02
     -4.878  0.2845E-02  0.8920E-02
     -4.820  0.2568E-02  0.9071E-02
     -4.761  0.2272E-02  0.9204E-02
     -4.703  0.2059E-02  0.9325E-02
     -4.644  0.2167E-02  0.9452E-02
     -4.585  0.2711E-02  0.9612E-02
     -4.527  0.3627E-02  0.9824E-02
     -4.468  0.4606E-02  0.1009E-01
     -4.409  0.5789E-02  0.1043E-01
     -4.351  0.7368E-02  0.1087E-01
     -4.292  0.7836E-02  0.1133E-01
     -4.234  0.8275E-02  0.1181E-01
     -4.175  0.7764E-02  0.1227E-01
     -4.116  0.5723E-02  0.1260E-01
     -4.058  0.5304E-02  0.1291E-01
     -3.999  0.5092E-02  0.1321E-01
     -3.940  0.4512E-02  0.1348E-01
     -3.882  0.4087E-02  0.1372E-01
     -3.823  0.3532E-02  0.1393E-01
     -3.765  0.3766E-02  0.1415E-01
     -3.706  0.3961E-02  0.1438E-01
     -3.647  0.2971E-02  0.1455E-01
     -3.589  0.2650E-02  0.1471E-01
     -3.530  0.3457E-02  0.1491E-01
     -3.471  0.4903E-02  0.1520E-01
     -3.413  0.6208E-02  0.1556E-01
     -3.354  0.6972E-02  0.1597E-01
     -3.296  0.6137E-02  0.1633E-01
     -3.237  0.4230E-02  0.1658E-01
     -3.178  0.3612E-02  0.1679E-01
     -3.120  0.3185E-02  0.1698E-01
     -3.061  0.3412E-02  0.1718E-01
     -3.002  0.5044E-02  0.1748E-01
     -2.944  0.6303E-02  0.1785E-01
     -2.885  0.5120E-02  0.1815E-01
     -2.827  0.4837E-02  0.1843E-01
     -2.768  0.5937E-02  0.1878E-01
     -2.709  0.6479E-02  0.1916E-01
     -2.651  0.7438E-02  0.1960E-01
     -2.592  0.7733E-02  0.2005E-01
     -2.534  0.6123E-02  0.2041E-01
     -2.475  0.6835E-02  0.2081E-01
     -2.416  0.7585E-02  0.2126E-01
     -2.358  0.5262E-02  0.2157E-01
     -2.299  0.4374E-02  0.2182E-01
     -2.240  0.4609E-02  0.2209E-01
     -2.182  0.5489E-02  0.2242E-01
     -2.123  0.5224E-02  0.2272E-01
     -2.065  0.4942E-02  0.2301E-01
     -2.006  0.5336E-02  0.2333E-01
     -1.947  0.5469E-02  0.2365E-01
     -1.889  0.5148E-02  0.2395E-01
     -1.830  0.5295E-02  0.2426E-01
     -1.771  0.6264E-02  0.2463E-01
     -1.713  0.6515E-02  0.2501E-01
     -1.654  0.7194E-02  0.2543E-01
     -1.596  0.6521E-02  0.2581E-01
     -1.537  0.5391E-02  0.2613E-01
     -1.478  0.5367E-02  0.2645E-01
     -1.420  0.8023E-02  0.2692E-01
     -1.361  0.1097E-01  0.2756E-01
     -1.302  0.1003E-01  0.2815E-01
     -1.244  0.6953E-02  0.2856E-01
     -1.185  0.4871E-02  0.2884E-01
     -1.127  0.4300E-02  0.2910E-01
     -1.068  0.5926E-02  0.2944E-01
     -1.009  0.7263E-02  0.2987E-01
     -0.951  0.8660E-02  0.3038E-01
     -0.892  0.9637E-02  0.3094E-01
     -0.833  0.7888E-02  0.3141E-01
     -0.775  0.6653E-02  0.3180E-01
     -0.716  0.7069E-02  0.3221E-01
     -0.658  0.6744E-02  0.3261E-01
     -0.599  0.5104E-02  0.3291E-01
     -0.540  0.5805E-02  0.3325E-01
     -0.482  0.6065E-02  0.3360E-01
     -0.423  0.4005E-02  0.3384E-01
     -0.365  0.5067E-02  0.3414E-01
     -0.306  0.4724E-02  0.3442E-01
     -0.247  0.3899E-02  0.3464E-01
     -0.189  0.4429E-02  0.3490E-01
     -0.130  0.3865E-02  0.3513E-01
     -0.071  0.3444E-02  0.3533E-01
     -0.013  0.3543E-02  0.3554E-01
      0.046  0.2539E-02  0.3569E-01
      0.104  0.1247E-02  0.3576E-01
      0.163  0.6432E-03  0.3580E-01
      0.222  0.4940E-03  0.3583E-01
      0.280  0.4501E-03  0.3586E-01
      0.339  0.7397E-03  0.3590E-01
      0.398  0.1146E-02  0.3597E-01
      0.456  0.1502E-02  0.3606E-01
      0.515  0.1784E-02  0.3616E-01
      0.573  0.1959E-02  0.3628E-01
      0.632  0.2330E-02  0.3641E-01
      0.691  0.3217E-02  0.3660E-01
      0.749  0.4361E-02  0.3686E-01
      0.808  0.3522E-02  0.3706E-01
      0.867  0.2250E-02  0.3720E-01
      0.925  0.2141E-02  0.3732E-01
      0.984  0.1607E-02  0.3742E-01
      1.042  0.2182E-02  0.3754E-01
      1.101  0.2314E-02  0.3768E-01
      1.160  0.1935E-02  0.3779E-01
      1.218  0.2526E-02  0.3794E-01
      1.277  0.3877E-02  0.3817E-01
      1.336  0.4203E-02  0.3842E-01
      1.394  0.5364E-02  0.3873E-01
      1.453  0.6716E-02  0.3912E-01
      1.511  0.7611E-02  0.3957E-01
      1.570  0.4849E-02  0.3985E-01
      1.629  0.1629E-02  0.3995E-01
      1.687  0.1342E-02  0.4003E-01
      1.746  0.3585E-02  0.4024E-01
      1.804  0.7315E-02  0.4067E-01
      1.863  0.7777E-02  0.4113E-01
      1.922  0.6508E-02  0.4151E-01
      1.980  0.6010E-02  0.4186E-01
      2.039  0.6297E-02  0.4223E-01
      2.098  0.7952E-02  0.4270E-01
      2.156  0.7456E-02  0.4313E-01
      2.215  0.5970E-02  0.4348E-01
      2.273  0.5212E-02  0.4379E-01
      2.332  0.5240E-02  0.4410E-01
      2.391  0.7375E-02  0.4453E-01
      2.449  0.9265E-02  0.4507E-01
      2.508  0.9170E-02  0.4561E-01
      2.567  0.6016E-02  0.4597E-01
      2.625  0.4456E-02  0.4623E-01
      2.684  0.5279E-02  0.4654E-01
      2.742  0.4682E-02  0.4681E-01
      2.801  0.3671E-02  0.4703E-01
      2.860  0.3063E-02  0.4721E-01
      2.918  0.2683E-02  0.4737E-01
      2.977  0.1505E-02  0.4745E-01
      3.036  0.6056E-03  0.4749E-01
      3.094  0.6177E-03  0.4753E-01
      3.153  0.1287E-02  0.4760E-01
      3.211  0.2000E-02  0.4772E-01
      3.270  0.1541E-02  0.4781E-01
      3.329  0.6376E-03  0.4785E-01
      3.387  0.5534E-03  0.4788E-01
      3.446  0.7579E-03  0.4792E-01
      3.505  0.7282E-03  0.4797E-01
      3.563  0.4475E-03  0.4799E-01
      3.622  0.1057E-03  0.4800E-01
      3.680  0.1195E-04  0.4800E-01
      3.739  0.0000E+00  0.4800E-01
      3.798  0.0000E+00  0.4800E-01
      3.856  0.0000E+00  0.4800E-01
      3.915  0.0000E+00  0.4800E-01
      3.973  0.0000E+00  0.4800E-01
      4.032  0.0000E+00  0.4800E-01
      4.091  0.0000E+00  0.4800E-01
      4.149  0.0000E+00  0.4800E-01
      4.208  0.0000E+00  0.4800E-01
      4.267  0.0000E+00  0.4800E-01
      4.325  0.0000E+00  0.4800E-01
