    6    6 1000    1
  0.5861956E+02  0.3452000E-09  0.6368000E-09  0.1600000E-08  0.5000000E-15
  1.000000000000000E-004
  CAR 
 2D MoTe2 in a box                       
     36    162     24
 
  0.2777778E-01  0.2777778E-01  0.1262379E-14  0.6172840E-02
    1      -12.461866
    2      -11.562162
    3      -10.754470
    4      -10.492504
    5       -5.240407
    6       -4.567463
    7       -4.307768
    8       -3.556523
    9       -2.430019
   10       -2.018577
   11       -1.960490
   12       -1.651204
   13       -1.314994
   14       -0.954913
   15       -0.677010
   16       -0.219625
   17       -0.000725
   18        0.595348
   19        0.902839
   20        1.520552
   21        2.036521
   22        2.424774
   23        2.622982
   24        3.525818
 
  0.8333333E-01  0.2777778E-01  0.1262379E-14  0.6172840E-02
    1      -12.392731
    2      -11.515349
    3      -10.718661
    4      -10.446510
    5       -5.168208
    6       -4.488788
    7       -4.278461
    8       -3.524991
    9       -2.469632
   10       -2.174867
   11       -2.054207
   12       -1.710922
   13       -1.313644
   14       -0.913282
   15       -0.710173
   16       -0.391761
   17       -0.005143
   18        0.443419
   19        0.587701
   20        1.666486
   21        2.142958
   22        2.365727
   23        2.432501
   24        3.115871
 
  0.1388889E+00  0.2777778E-01  0.1262379E-14  0.6172840E-02
    1      -12.256225
    2      -11.423830
    3      -10.650473
    4      -10.359274
    5       -5.029659
    6       -4.352793
    7       -4.214660
    8       -3.475162
    9       -2.549237
   10       -2.457418
   11       -2.122217
   12       -1.941148
   13       -1.344353
   14       -1.027469
   15       -0.804761
   16       -0.526670
   17       -0.012492
   18        0.090263
   19        0.361690
   20        1.635923
   21        2.199644
   22        2.300514
   23        2.408866
   24        2.569084
 
  0.1944444E+00  0.2777778E-01  0.1262379E-14  0.6172840E-02
    1      -12.056121
    2      -11.292117
    3      -10.557120
    4      -10.241410
    5       -4.838628
    6       -4.264150
    7       -4.045641
    8       -3.433250
    9       -2.846921
   10       -2.623703
   11       -2.308092
   12       -2.206634
   13       -1.391186
   14       -1.228391
   15       -1.079072
   16       -0.709659
   17       -0.329710
   18        0.009640
   19        0.352359
   20        1.460614
   21        2.101158
   22        2.215850
   23        2.392153
   24        2.419600
 
  0.2500000E+00  0.2777778E-01  0.1262379E-14  0.6172840E-02
    1      -11.798830
    2      -11.127625
    3      -10.450101
    4      -10.111427
    5       -4.623379
    6       -4.264806
    7       -3.779324
    8       -3.477733
    9       -3.310039
   10       -2.661788
   11       -2.518548
   12       -2.426077
   13       -1.701588
   14       -1.415838
   15       -1.350430
   16       -0.985483
   17       -0.542472
   18       -0.041975
   19        0.498777
   20        1.349387
   21        1.832538
   22        2.240022
   23        2.361780
   24        2.509407
 
  0.3055556E+00  0.2777778E-01  0.1262379E-14  0.6172840E-02
    1      -11.494536
    2      -10.941598
    3      -10.345446
    4       -9.998146
    5       -4.443758
    6       -4.317410
    7       -3.963915
    8       -3.480134
    9       -3.331526
   10       -2.807273
   11       -2.683376
   12       -2.597126
   13       -2.239023
   14       -1.530056
   15       -1.406026
   16       -1.228254
   17       -0.691195
   18       -0.177297
   19        0.736743
   20        1.320938
   21        1.733682
   22        2.259195
   23        2.346392
   24        2.465254
 
  0.3611111E+00  0.2777778E-01  0.1262379E-14  0.6172840E-02
    1      -11.159628
    2      -10.750468
    3      -10.262384
    4       -9.940162
    5       -4.471188
    6       -4.343438
    7       -4.311938
    8       -3.411151
    9       -3.255575
   10       -3.092531
   11       -2.838935
   12       -2.799007
   13       -2.224088
   14       -1.689575
   15       -1.440330
   16       -1.327509
   17       -0.851867
   18       -0.389915
   19        1.011346
   20        1.369061
   21        1.757927
   22        2.089162
   23        2.279179
   24        2.486725
 
  0.4166667E+00  0.2777778E-01  0.1262379E-14  0.6172840E-02
    1      -10.822053
    2      -10.578031
    3      -10.216954
    4       -9.973879
    5       -4.638557
    6       -4.466400
    7       -4.319332
    8       -3.842211
    9       -3.317573
   10       -3.227203
   11       -2.751475
   12       -2.610947
   13       -2.087380
   14       -1.873476
   15       -1.465775
   16       -1.305386
   17       -1.006025
   18       -0.663912
   19        1.271378
   20        1.458198
   21        1.812510
   22        1.909927
   23        2.164820
   24        2.495676
 
  0.4722222E+00  0.2777778E-01  0.1262379E-14  0.6172840E-02
    1      -10.542638
    2      -10.467936
    3      -10.196439
    4      -10.098257
    5       -4.643751
    6       -4.536289
    7       -4.340256
    8       -4.212105
    9       -3.381177
   10       -3.348630
   11       -2.459416
   12       -2.335300
   13       -2.176131
   14       -2.085217
   15       -1.331991
   16       -1.252510
   17       -1.101277
   18       -0.961587
   19        1.450552
   20        1.504097
   21        1.805819
   22        1.809778
   23        2.223576
   24        2.382084
 
 -0.4722222E+00  0.2777778E-01  0.1262379E-14  0.6172840E-02
    1      -10.542638
    2      -10.467936
    3      -10.196439
    4      -10.098257
    5       -4.643751
    6       -4.536289
    7       -4.340256
    8       -4.212105
    9       -3.381177
   10       -3.348630
   11       -2.459416
   12       -2.335300
   13       -2.176131
   14       -2.085217
   15       -1.331991
   16       -1.252510
   17       -1.101277
   18       -0.961587
   19        1.450552
   20        1.504097
   21        1.805819
   22        1.809778
   23        2.223576
   24        2.382084
 
 -0.4166667E+00  0.2777778E-01  0.1262379E-14  0.6172840E-02
    1      -10.822053
    2      -10.578031
    3      -10.216954
    4       -9.973879
    5       -4.638557
    6       -4.466400
    7       -4.319332
    8       -3.842211
    9       -3.317573
   10       -3.227203
   11       -2.751475
   12       -2.610947
   13       -2.087380
   14       -1.873476
   15       -1.465775
   16       -1.305386
   17       -1.006025
   18       -0.663912
   19        1.271378
   20        1.458198
   21        1.812510
   22        1.909927
   23        2.164820
   24        2.495676
 
 -0.3611111E+00  0.2777778E-01  0.1262379E-14  0.6172840E-02
    1      -11.159628
    2      -10.750468
    3      -10.262384
    4       -9.940162
    5       -4.471188
    6       -4.343438
    7       -4.311938
    8       -3.411151
    9       -3.255575
   10       -3.092531
   11       -2.838935
   12       -2.799007
   13       -2.224088
   14       -1.689575
   15       -1.440330
   16       -1.327509
   17       -0.851867
   18       -0.389915
   19        1.011346
   20        1.369061
   21        1.757927
   22        2.089162
   23        2.279179
   24        2.486725
 
 -0.3055556E+00  0.2777778E-01  0.1262379E-14  0.6172840E-02
    1      -11.494536
    2      -10.941598
    3      -10.345446
    4       -9.998146
    5       -4.443758
    6       -4.317410
    7       -3.963915
    8       -3.480134
    9       -3.331526
   10       -2.807273
   11       -2.683376
   12       -2.597126
   13       -2.239023
   14       -1.530056
   15       -1.406026
   16       -1.228254
   17       -0.691195
   18       -0.177297
   19        0.736743
   20        1.320938
   21        1.733682
   22        2.259195
   23        2.346392
   24        2.465254
 
 -0.2500000E+00  0.2777778E-01  0.1262379E-14  0.6172840E-02
    1      -11.798830
    2      -11.127625
    3      -10.450101
    4      -10.111427
    5       -4.623379
    6       -4.264806
    7       -3.779324
    8       -3.477733
    9       -3.310039
   10       -2.661788
   11       -2.518548
   12       -2.426077
   13       -1.701588
   14       -1.415838
   15       -1.350430
   16       -0.985483
   17       -0.542472
   18       -0.041975
   19        0.498777
   20        1.349387
   21        1.832538
   22        2.240022
   23        2.361780
   24        2.509407
 
 -0.1944444E+00  0.2777778E-01  0.1262379E-14  0.6172840E-02
    1      -12.056121
    2      -11.292117
    3      -10.557120
    4      -10.241410
    5       -4.838628
    6       -4.264150
    7       -4.045641
    8       -3.433250
    9       -2.846921
   10       -2.623703
   11       -2.308092
   12       -2.206634
   13       -1.391186
   14       -1.228391
   15       -1.079072
   16       -0.709659
   17       -0.329710
   18        0.009640
   19        0.352359
   20        1.460614
   21        2.101158
   22        2.215850
   23        2.392153
   24        2.419600
 
 -0.1388889E+00  0.2777778E-01  0.1262379E-14  0.6172840E-02
    1      -12.256225
    2      -11.423830
    3      -10.650473
    4      -10.359274
    5       -5.029659
    6       -4.352793
    7       -4.214660
    8       -3.475162
    9       -2.549237
   10       -2.457418
   11       -2.122217
   12       -1.941148
   13       -1.344353
   14       -1.027469
   15       -0.804761
   16       -0.526670
   17       -0.012492
   18        0.090263
   19        0.361690
   20        1.635923
   21        2.199644
   22        2.300514
   23        2.408866
   24        2.569084
 
 -0.8333333E-01  0.2777778E-01  0.1262379E-14  0.6172840E-02
    1      -12.392731
    2      -11.515349
    3      -10.718661
    4      -10.446510
    5       -5.168208
    6       -4.488788
    7       -4.278461
    8       -3.524991
    9       -2.469632
   10       -2.174867
   11       -2.054207
   12       -1.710922
   13       -1.313644
   14       -0.913282
   15       -0.710173
   16       -0.391761
   17       -0.005143
   18        0.443419
   19        0.587701
   20        1.666486
   21        2.142958
   22        2.365727
   23        2.432501
   24        3.115871
 
 -0.2777778E-01  0.2777778E-01  0.1262379E-14  0.6172840E-02
    1      -12.461866
    2      -11.562162
    3      -10.754470
    4      -10.492504
    5       -5.240407
    6       -4.567463
    7       -4.307768
    8       -3.556523
    9       -2.430019
   10       -2.018577
   11       -1.960490
   12       -1.651204
   13       -1.314994
   14       -0.954913
   15       -0.677010
   16       -0.219625
   17       -0.000725
   18        0.595348
   19        0.902839
   20        1.520552
   21        2.036521
   22        2.424774
   23        2.622982
   24        3.525818
 
  0.2777778E-01  0.8333333E-01  0.1262379E-14  0.6172840E-02
    1      -12.443521
    2      -11.553237
    3      -10.795534
    4      -10.501642
    5       -5.216228
    6       -4.516682
    7       -4.289507
    8       -3.530834
    9       -2.479964
   10       -2.020801
   11       -1.938039
   12       -1.651129
   13       -1.395756
   14       -0.888265
   15       -0.705180
   16       -0.229303
   17        0.002600
   18        0.534465
   19        0.887103
   20        1.517155
   21        2.003424
   22        2.412295
   23        2.655951
   24        3.496384
 
  0.8333333E-01  0.8333333E-01  0.1262379E-14  0.6172840E-02
    1      -12.374580
    2      -11.506497
    3      -10.757876
    4      -10.456650
    5       -5.142703
    6       -4.437600
    7       -4.264151
    8       -3.498246
    9       -2.520564
   10       -2.188023
   11       -2.029553
   12       -1.703122
   13       -1.365965
   14       -0.891907
   15       -0.735280
   16       -0.379173
   17       -0.020899
   18        0.347957
   19        0.660557
   20        1.609824
   21        2.085358
   22        2.404312
   23        2.453161
   24        3.134427
 
  0.1388889E+00  0.8333333E-01  0.1262379E-14  0.6172840E-02
    1      -12.238484
    2      -11.415147
    3      -10.686317
    4      -10.370968
    5       -5.001593
    6       -4.302449
    7       -4.207854
    8       -3.448825
    9       -2.597710
   10       -2.449661
   11       -2.151430
   12       -1.897232
   13       -1.382096
   14       -1.047552
   15       -0.813504
   16       -0.512947
   17       -0.053284
   18        0.039746
   19        0.437823
   20        1.594137
   21        2.098934
   22        2.363440
   23        2.396815
   24        2.637752
 
  0.1944444E+00  0.8333333E-01  0.1262379E-14  0.6172840E-02
    1      -12.039058
    2      -11.283740
    3      -10.588566
    4      -10.254403
    5       -4.807719
    6       -4.238231
    7       -4.030915
    8       -3.414499
    9       -2.837641
   10       -2.631300
   11       -2.395823
   12       -2.132352
   13       -1.439024
   14       -1.298942
   15       -1.001211
   16       -0.733422
   17       -0.325634
   18       -0.034925
   19        0.401201
   20        1.458374
   21        2.034250
   22        2.162223
   23        2.400632
   24        2.535940
 
  0.2500000E+00  0.8333333E-01  0.1262379E-14  0.6172840E-02
    1      -11.782784
    2      -11.119745
    3      -10.476615
    4      -10.124517
    5       -4.597050
    6       -4.249219
    7       -3.799672
    8       -3.436378
    9       -3.298899
   10       -2.647422
   11       -2.577365
   12       -2.393285
   13       -1.808056
   14       -1.428200
   15       -1.244560
   16       -0.994143
   17       -0.535519
   18       -0.096487
   19        0.531287
   20        1.362544
   21        1.817788
   22        2.166426
   23        2.363095
   24        2.621340
 
  0.3055556E+00  0.8333333E-01  0.1262379E-14  0.6172840E-02
    1      -11.480043
    2      -10.934470
    3      -10.366829
    4      -10.009255
    5       -4.481655
    6       -4.274976
    7       -3.948141
    8       -3.481468
    9       -3.333407
   10       -2.790977
   11       -2.692215
   12       -2.609829
   13       -2.256444
   14       -1.515761
   15       -1.353755
   16       -1.224306
   17       -0.695668
   18       -0.225966
   19        0.753882
   20        1.340777
   21        1.728534
   22        2.219750
   23        2.322596
   24        2.582427
 
  0.3611111E+00  0.8333333E-01  0.1262379E-14  0.6172840E-02
    1      -11.147578
    2      -10.744379
    3      -10.278625
    4       -9.946752
    5       -4.599517
    6       -4.329597
    7       -4.190002
    8       -3.495237
    9       -3.307600
   10       -2.992567
   11       -2.826787
   12       -2.795437
   13       -2.199412
   14       -1.673145
   15       -1.395089
   16       -1.326773
   17       -0.865570
   18       -0.420055
   19        1.013321
   20        1.393406
   21        1.757969
   22        2.088998
   23        2.315620
   24        2.507247
 
  0.4166667E+00  0.8333333E-01  0.1262379E-14  0.6172840E-02
    1      -10.814242
    2      -10.573319
    3      -10.227802
    4       -9.973944
    5       -4.753869
    6       -4.410587
    7       -4.329840
    8       -3.871853
    9       -3.361572
   10       -3.111943
   11       -2.759897
   12       -2.587728
   13       -2.066640
   14       -1.859522
   15       -1.414367
   16       -1.305727
   17       -1.028207
   18       -0.667799
   19        1.262138
   20        1.481656
   21        1.822115
   22        1.929735
   23        2.201033
   24        2.490968
 
  0.4722222E+00  0.8333333E-01  0.1262379E-14  0.6172840E-02
    1      -10.542205
    2      -10.466347
    3      -10.198322
    4      -10.092599
    5       -4.745817
    6       -4.574990
    7       -4.350450
    8       -4.193115
    9       -3.356312
   10       -3.269562
   11       -2.467037
   12       -2.323668
   13       -2.155770
   14       -2.068050
   15       -1.302685
   16       -1.237529
   17       -1.122238
   18       -0.942717
   19        1.443858
   20        1.514932
   21        1.830233
   22        1.838743
   23        2.235467
   24        2.381897
 
 -0.4722222E+00  0.8333333E-01  0.1262379E-14  0.6172840E-02
    1      -10.542205
    2      -10.466347
    3      -10.198322
    4      -10.092599
    5       -4.745817
    6       -4.574990
    7       -4.350450
    8       -4.193115
    9       -3.356312
   10       -3.269562
   11       -2.467037
   12       -2.323668
   13       -2.155770
   14       -2.068050
   15       -1.302685
   16       -1.237529
   17       -1.122238
   18       -0.942717
   19        1.443858
   20        1.514932
   21        1.830233
   22        1.838743
   23        2.235467
   24        2.381897
 
 -0.4166667E+00  0.8333333E-01  0.1262379E-14  0.6172840E-02
    1      -10.814242
    2      -10.573319
    3      -10.227802
    4       -9.973944
    5       -4.753869
    6       -4.410587
    7       -4.329840
    8       -3.871853
    9       -3.361572
   10       -3.111943
   11       -2.759897
   12       -2.587728
   13       -2.066640
   14       -1.859522
   15       -1.414367
   16       -1.305727
   17       -1.028207
   18       -0.667799
   19        1.262138
   20        1.481656
   21        1.822115
   22        1.929735
   23        2.201033
   24        2.490968
 
 -0.3611111E+00  0.8333333E-01  0.1262379E-14  0.6172840E-02
    1      -11.147578
    2      -10.744379
    3      -10.278625
    4       -9.946752
    5       -4.599517
    6       -4.329597
    7       -4.190002
    8       -3.495237
    9       -3.307600
   10       -2.992567
   11       -2.826787
   12       -2.795437
   13       -2.199412
   14       -1.673145
   15       -1.395089
   16       -1.326773
   17       -0.865570
   18       -0.420055
   19        1.013321
   20        1.393406
   21        1.757969
   22        2.088998
   23        2.315620
   24        2.507247
 
 -0.3055556E+00  0.8333333E-01  0.1262379E-14  0.6172840E-02
    1      -11.480043
    2      -10.934470
    3      -10.366829
    4      -10.009255
    5       -4.481655
    6       -4.274976
    7       -3.948141
    8       -3.481468
    9       -3.333407
   10       -2.790977
   11       -2.692215
   12       -2.609829
   13       -2.256444
   14       -1.515761
   15       -1.353755
   16       -1.224306
   17       -0.695668
   18       -0.225966
   19        0.753882
   20        1.340777
   21        1.728534
   22        2.219750
   23        2.322596
   24        2.582427
 
 -0.2500000E+00  0.8333333E-01  0.1262379E-14  0.6172840E-02
    1      -11.782784
    2      -11.119745
    3      -10.476615
    4      -10.124517
    5       -4.597050
    6       -4.249219
    7       -3.799672
    8       -3.436378
    9       -3.298899
   10       -2.647422
   11       -2.577365
   12       -2.393285
   13       -1.808056
   14       -1.428200
   15       -1.244560
   16       -0.994143
   17       -0.535519
   18       -0.096487
   19        0.531287
   20        1.362544
   21        1.817788
   22        2.166426
   23        2.363095
   24        2.621340
 
 -0.1944444E+00  0.8333333E-01  0.1262379E-14  0.6172840E-02
    1      -12.039058
    2      -11.283740
    3      -10.588566
    4      -10.254403
    5       -4.807719
    6       -4.238231
    7       -4.030915
    8       -3.414499
    9       -2.837641
   10       -2.631300
   11       -2.395823
   12       -2.132352
   13       -1.439024
   14       -1.298942
   15       -1.001211
   16       -0.733422
   17       -0.325634
   18       -0.034925
   19        0.401201
   20        1.458374
   21        2.034250
   22        2.162223
   23        2.400632
   24        2.535940
 
 -0.1388889E+00  0.8333333E-01  0.1262379E-14  0.6172840E-02
    1      -12.238484
    2      -11.415147
    3      -10.686317
    4      -10.370968
    5       -5.001593
    6       -4.302449
    7       -4.207854
    8       -3.448825
    9       -2.597710
   10       -2.449661
   11       -2.151430
   12       -1.897232
   13       -1.382096
   14       -1.047552
   15       -0.813504
   16       -0.512947
   17       -0.053284
   18        0.039746
   19        0.437823
   20        1.594137
   21        2.098934
   22        2.363440
   23        2.396815
   24        2.637752
 
 -0.8333333E-01  0.8333333E-01  0.1262379E-14  0.6172840E-02
    1      -12.374580
    2      -11.506497
    3      -10.757876
    4      -10.456650
    5       -5.142703
    6       -4.437600
    7       -4.264151
    8       -3.498246
    9       -2.520564
   10       -2.188023
   11       -2.029553
   12       -1.703122
   13       -1.365965
   14       -0.891907
   15       -0.735280
   16       -0.379173
   17       -0.020899
   18        0.347957
   19        0.660557
   20        1.609824
   21        2.085358
   22        2.404312
   23        2.453161
   24        3.134427
 
 -0.2777778E-01  0.8333333E-01  0.1262379E-14  0.6172840E-02
    1      -12.443521
    2      -11.553237
    3      -10.795534
    4      -10.501642
    5       -5.216228
    6       -4.516682
    7       -4.289507
    8       -3.530834
    9       -2.479964
   10       -2.020801
   11       -1.938039
   12       -1.651129
   13       -1.395756
   14       -0.888265
   15       -0.705180
   16       -0.229303
   17        0.002600
   18        0.534465
   19        0.887103
   20        1.517155
   21        2.003424
   22        2.412295
   23        2.655951
   24        3.496384
 
  0.2777778E-01  0.1388889E+00  0.1262379E-14  0.6172840E-02
    1      -12.407060
    2      -11.536083
    3      -10.870983
    4      -10.522296
    5       -5.167922
    6       -4.434854
    7       -4.237570
    8       -3.489155
    9       -2.567841
   10       -2.018156
   11       -1.901391
   12       -1.652982
   13       -1.495002
   14       -0.825080
   15       -0.742625
   16       -0.249078
   17       -0.007883
   18        0.432954
   19        0.842753
   20        1.513516
   21        1.947365
   22        2.383497
   23        2.714590
   24        3.458720
 
  0.8333333E-01  0.1388889E+00  0.1262379E-14  0.6172840E-02
    1      -12.338523
    2      -11.489461
    3      -10.830570
    4      -10.478500
    5       -5.092343
    6       -4.354845
    7       -4.219445
    8       -3.453351
    9       -2.613858
   10       -2.201891
   11       -1.988140
   12       -1.690920
   13       -1.444347
   14       -0.875189
   15       -0.773578
   16       -0.364202
   17       -0.058954
   18        0.240316
   19        0.720291
   20        1.519686
   21        2.012340
   22        2.388010
   23        2.527086
   24        3.165899
 
  0.1388889E+00  0.1388889E+00  0.1262379E-14  0.6172840E-02
    1      -12.203243
    2      -11.398405
    3      -10.753723
    4      -10.394714
    5       -4.947101
    6       -4.204419
    7       -4.193809
    8       -3.402497
    9       -2.689994
   10       -2.444294
   11       -2.164659
   12       -1.843090
   13       -1.452335
   14       -1.077594
   15       -0.831773
   16       -0.499379
   17       -0.093007
   18       -0.051562
   19        0.538980
   20        1.509854
   21        2.021470
   22        2.330062
   23        2.443494
   24        2.722124
 
  0.1944444E+00  0.1388889E+00  0.1262379E-14  0.6172840E-02
    1      -12.005173
    2      -11.267544
    3      -10.648609
    4      -10.279728
    5       -4.748205
    6       -4.192037
    7       -3.996413
    8       -3.384061
    9       -2.829956
   10       -2.654719
   11       -2.466988
   12       -2.068372
   13       -1.543771
   14       -1.336616
   15       -0.937784
   16       -0.753028
   17       -0.336177
   18       -0.112815
   19        0.488151
   20        1.432983
   21        1.954079
   22        2.132030
   23        2.419235
   24        2.627739
 
  0.2500000E+00  0.1388889E+00  0.1262379E-14  0.6172840E-02
    1      -11.750932
    2      -11.104466
    3      -10.527823
    4      -10.149606
    5       -4.546034
    6       -4.218216
    7       -3.817184
    8       -3.432758
    9       -3.220715
   10       -2.663153
   11       -2.624604
   12       -2.372480
   13       -1.927007
   14       -1.429786
   15       -1.127637
   16       -1.005478
   17       -0.535405
   18       -0.190147
   19        0.593133
   20        1.369942
   21        1.793792
   22        2.103157
   23        2.380571
   24        2.724456
 
  0.3055556E+00  0.1388889E+00  0.1262379E-14  0.6172840E-02
    1      -11.451301
    2      -10.920639
    3      -10.408382
    4      -10.030623
    5       -4.518568
    6       -4.227384
    7       -3.914748
    8       -3.524427
    9       -3.298095
   10       -2.793909
   11       -2.712409
   12       -2.616060
   13       -2.253843
   14       -1.495868
   15       -1.266497
   16       -1.215632
   17       -0.707413
   18       -0.310477
   19        0.789121
   20        1.365555
   21        1.722118
   22        2.157349
   23        2.355649
   24        2.705689
 
  0.3611111E+00  0.1388889E+00  0.1262379E-14  0.6172840E-02
    1      -11.123746
    2      -10.732587
    3      -10.310074
    4       -9.959822
    5       -4.710644
    6       -4.330176
    7       -4.078748
    8       -3.596414
    9       -3.365138
   10       -2.899936
   11       -2.799617
   12       -2.777712
   13       -2.149694
   14       -1.641379
   15       -1.339993
   16       -1.302656
   17       -0.891784
   18       -0.470433
   19        1.022139
   20        1.426283
   21        1.763359
   22        2.084257
   23        2.376910
   24        2.556986
 
  0.4166667E+00  0.1388889E+00  0.1262379E-14  0.6172840E-02
    1      -10.798910
    2      -10.564358
    3      -10.248066
    4       -9.974968
    5       -4.880485
    6       -4.396802
    7       -4.366522
    8       -3.903120
    9       -3.350475
   10       -2.997853
   11       -2.775212
   12       -2.545851
   13       -2.020518
   14       -1.826024
   15       -1.352711
   16       -1.285143
   17       -1.066941
   18       -0.670605
   19        1.253104
   20        1.508517
   21        1.848757
   22        1.958742
   23        2.276258
   24        2.483933
 
  0.4722222E+00  0.1388889E+00  0.1262379E-14  0.6172840E-02
    1      -10.540980
    2      -10.464137
    3      -10.200297
    4      -10.083128
    5       -4.875356
    6       -4.681110
    7       -4.350957
    8       -4.186028
    9       -3.284356
   10       -3.167468
   11       -2.484625
   12       -2.320749
   13       -2.097480
   14       -2.019724
   15       -1.296412
   16       -1.210486
   17       -1.124036
   18       -0.902676
   19        1.435705
   20        1.524138
   21        1.881566
   22        1.890184
   23        2.261859
   24        2.383271
 
 -0.4722222E+00  0.1388889E+00  0.1262379E-14  0.6172840E-02
    1      -10.540980
    2      -10.464137
    3      -10.200297
    4      -10.083128
    5       -4.875356
    6       -4.681110
    7       -4.350957
    8       -4.186028
    9       -3.284356
   10       -3.167468
   11       -2.484625
   12       -2.320749
   13       -2.097480
   14       -2.019724
   15       -1.296412
   16       -1.210486
   17       -1.124036
   18       -0.902676
   19        1.435705
   20        1.524138
   21        1.881566
   22        1.890184
   23        2.261859
   24        2.383271
 
 -0.4166667E+00  0.1388889E+00  0.1262379E-14  0.6172840E-02
    1      -10.798910
    2      -10.564358
    3      -10.248066
    4       -9.974968
    5       -4.880485
    6       -4.396802
    7       -4.366522
    8       -3.903120
    9       -3.350475
   10       -2.997853
   11       -2.775212
   12       -2.545851
   13       -2.020518
   14       -1.826024
   15       -1.352711
   16       -1.285143
   17       -1.066941
   18       -0.670605
   19        1.253104
   20        1.508517
   21        1.848757
   22        1.958742
   23        2.276258
   24        2.483933
 
 -0.3611111E+00  0.1388889E+00  0.1262379E-14  0.6172840E-02
    1      -11.123746
    2      -10.732587
    3      -10.310074
    4       -9.959822
    5       -4.710644
    6       -4.330176
    7       -4.078748
    8       -3.596414
    9       -3.365138
   10       -2.899936
   11       -2.799617
   12       -2.777712
   13       -2.149694
   14       -1.641379
   15       -1.339993
   16       -1.302656
   17       -0.891784
   18       -0.470433
   19        1.022139
   20        1.426283
   21        1.763359
   22        2.084257
   23        2.376910
   24        2.556986
 
 -0.3055556E+00  0.1388889E+00  0.1262379E-14  0.6172840E-02
    1      -11.451301
    2      -10.920639
    3      -10.408382
    4      -10.030623
    5       -4.518568
    6       -4.227384
    7       -3.914748
    8       -3.524427
    9       -3.298095
   10       -2.793909
   11       -2.712409
   12       -2.616060
   13       -2.253843
   14       -1.495868
   15       -1.266497
   16       -1.215632
   17       -0.707413
   18       -0.310477
   19        0.789121
   20        1.365555
   21        1.722118
   22        2.157349
   23        2.355649
   24        2.705689
 
 -0.2500000E+00  0.1388889E+00  0.1262379E-14  0.6172840E-02
    1      -11.750932
    2      -11.104466
    3      -10.527823
    4      -10.149606
    5       -4.546034
    6       -4.218216
    7       -3.817184
    8       -3.432758
    9       -3.220715
   10       -2.663153
   11       -2.624604
   12       -2.372480
   13       -1.927007
   14       -1.429786
   15       -1.127637
   16       -1.005478
   17       -0.535405
   18       -0.190147
   19        0.593133
   20        1.369942
   21        1.793792
   22        2.103157
   23        2.380571
   24        2.724456
 
 -0.1944444E+00  0.1388889E+00  0.1262379E-14  0.6172840E-02
    1      -12.005173
    2      -11.267544
    3      -10.648609
    4      -10.279728
    5       -4.748205
    6       -4.192037
    7       -3.996413
    8       -3.384061