       N       E                     dE             d eps       ncg     rms          rms(c)
DAV:   1     0.186025349848E+03    0.18603E+03   -0.95555E+03  7776   0.792E+02
DAV:   2    -0.182248501134E+02   -0.20425E+03   -0.19917E+03 11536   0.177E+02
DAV:   3    -0.367398540208E+02   -0.18515E+02   -0.18282E+02 10304   0.595E+01
DAV:   4    -0.374080353364E+02   -0.66818E+00   -0.66598E+00 12448   0.127E+01
DAV:   5    -0.374183888949E+02   -0.10354E-01   -0.10348E-01 11256   0.175E+00    0.216E+01
DAV:   6    -0.364803219975E+02    0.93807E+00   -0.43912E+00 10832   0.976E+00    0.868E+00
DAV:   7    -0.365062693656E+02   -0.25947E-01   -0.59691E+00  9936   0.117E+01    0.651E+00
DAV:   8    -0.359999172812E+02    0.50635E+00   -0.14253E+00 10216   0.629E+00    0.230E+00
DAV:   9    -0.359914561536E+02    0.84611E-02   -0.34098E-01 11856   0.273E+00    0.110E+00
DAV:  10    -0.359855516192E+02    0.59045E-02   -0.33221E-02 10288   0.986E-01    0.511E-01
DAV:  11    -0.359843256659E+02    0.12260E-02   -0.74917E-03 11032   0.470E-01    0.260E-01
DAV:  12    -0.359837754959E+02    0.55017E-03   -0.32185E-03 11368   0.304E-01    0.106E-01
DAV:  13    -0.359836179066E+02    0.15759E-03   -0.86352E-04 11472   0.151E-01    0.465E-02
DAV:  14    -0.359833990227E+02    0.21888E-03   -0.19143E-04  9528   0.588E-02    0.353E-02
DAV:  15    -0.359831461684E+02    0.25285E-03   -0.38554E-04  9640   0.725E-02    0.349E-02
DAV:  16    -0.359831856293E+02   -0.39461E-04   -0.21403E-05 11336   0.205E-02    0.272E-02
DAV:  17    -0.359833420597E+02   -0.15643E-03   -0.22665E-05 10936   0.229E-02    0.699E-03
DAV:  18    -0.359834633800E+02   -0.12132E-03   -0.20212E-05  9264   0.176E-02    0.154E-02
DAV:  19    -0.359835393546E+02   -0.75975E-04   -0.29666E-06  9040   0.791E-03    0.279E-03
DAV:  20    -0.359835946552E+02   -0.55301E-04   -0.15872E-06  7376   0.583E-03    0.484E-03
DAV:  21    -0.359836091055E+02   -0.14450E-04   -0.31860E-07  6360   0.222E-03    0.185E-03
DAV:  22    -0.359836158418E+02   -0.67363E-05   -0.28829E-07  6320   0.166E-03    0.147E-03
DAV:  23    -0.359836170739E+02   -0.12321E-05   -0.13512E-07  5928   0.141E-03    0.917E-04
DAV:  24    -0.359836171765E+02   -0.10260E-06   -0.26264E-08  5304   0.764E-04
   1 F= -.35983617E+02 E0= -.35982128E+02  d E =-.359836E+02
       N       E                     dE             d eps       ncg     rms          rms(c)
DAV:   1    -0.359836254547E+02   -0.83808E-05   -0.15171E-03  7976   0.189E-01    0.181E-02
DAV:   2    -0.359836267126E+02   -0.12580E-05   -0.23238E-05 10208   0.244E-02    0.776E-03
DAV:   3    -0.359836263381E+02    0.37457E-06   -0.63965E-07  6176   0.472E-03
   2 F= -.35983626E+02 E0= -.35982140E+02  d E =-.916160E-05
       N       E                     dE             d eps       ncg     rms          rms(c)
DAV:   1    -0.359836259666E+02    0.74602E-06   -0.18000E-05  8296   0.209E-02    0.269E-03
DAV:   2    -0.359836258747E+02    0.91920E-07   -0.55074E-07  5112   0.406E-03
   3 F= -.35983626E+02 E0= -.35982140E+02  d E =-.869823E-05
