<?xml version="1.0" encoding="ISO-8859-1"?>
<modeling>
 <generator>
  <i name="program" type="string">vasp </i>
  <i name="version" type="string">5.3.5  </i>
  <i name="subversion" type="string">31Mar14 (build Mar 18 2017 11:34:20) complex                          parallel </i>
  <i name="platform" type="string">LinuxIFC </i>
  <i name="date" type="string">2017 10 27 </i>
  <i name="time" type="string">23:30:16 </i>
 </generator>
 <incar>
  <i type="string" name="SYSTEM"> 2D MoTe2 in a box</i>
  <i type="string" name="PREC">accurate</i>
  <i type="string" name="ALGO"> Normal</i>
  <i type="int" name="NELMDL">    -5</i>
  <i type="int" name="IBRION">     2</i>
  <i name="EDIFF">      0.00000100</i>
  <i type="int" name="NSW">  1000</i>
  <i type="int" name="ISIF">     2</i>
  <i type="int" name="ISYM">     0</i>
  <i name="ENCUT">    350.00000000</i>
  <i name="POTIM">      0.50000000</i>
  <i name="NELECT">     35.98000000</i>
  <i type="logical" name="LREAL"> F  </i>
  <i type="int" name="ISMEAR">    -1</i>
  <i name="SIGMA">      0.02586521</i>
  <i type="int" name="NWRITE">     3</i>
  <i type="logical" name="LWAVE"> F  </i>
  <i type="logical" name="LCHARG"> F  </i>
 </incar>
 <kpoints>
  <generation param="Monkhorst-Pack">
   <v type="int" name="divisions">      18       18        1 </v>
   <v name="usershift">      0.00000000       0.00000000       0.00000000 </v>
   <v name="genvec1">      0.05555556       0.00000000       0.00000000 </v>
   <v name="genvec2">      0.00000000       0.05555556       0.00000000 </v>
   <v name="genvec3">      0.00000000       0.00000000       1.00000000 </v>
   <v name="shift">      0.50000000       0.50000000       0.00000000 </v>
  </generation>
  <varray name="kpointlist" >
   <v>       0.02777778       0.02777778       0.00000000 </v>
   <v>       0.08333333       0.02777778       0.00000000 </v>
   <v>       0.13888889       0.02777778       0.00000000 </v>
   <v>       0.19444444       0.02777778       0.00000000 </v>
   <v>       0.25000000       0.02777778       0.00000000 </v>
   <v>       0.30555556       0.02777778       0.00000000 </v>
   <v>       0.36111111       0.02777778       0.00000000 </v>
   <v>       0.41666667       0.02777778       0.00000000 </v>
   <v>       0.47222222       0.02777778       0.00000000 </v>
   <v>      -0.47222222       0.02777778       0.00000000 </v>
   <v>      -0.41666667       0.02777778       0.00000000 </v>
   <v>      -0.36111111       0.02777778       0.00000000 </v>
   <v>      -0.30555556       0.02777778       0.00000000 </v>
   <v>      -0.25000000       0.02777778       0.00000000 </v>
   <v>      -0.19444444       0.02777778       0.00000000 </v>
   <v>      -0.13888889       0.02777778       0.00000000 </v>
   <v>      -0.08333333       0.02777778       0.00000000 </v>
   <v>      -0.02777778       0.02777778       0.00000000 </v>
   <v>       0.02777778       0.08333333       0.00000000 </v>
   <v>       0.08333333       0.08333333       0.00000000 </v>
   <v>       0.13888889       0.08333333       0.00000000 </v>
   <v>       0.19444444       0.08333333       0.00000000 </v>
   <v>       0.25000000       0.08333333       0.00000000 </v>
   <v>       0.30555556       0.08333333       0.00000000 </v>
   <v>       0.36111111       0.08333333       0.00000000 </v>
   <v>       0.41666667       0.08333333       0.00000000 </v>
   <v>       0.47222222       0.08333333       0.00000000 </v>
   <v>      -0.47222222       0.08333333       0.00000000 </v>
   <v>      -0.41666667       0.08333333       0.00000000 </v>
   <v>      -0.36111111       0.08333333       0.00000000 </v>
   <v>      -0.30555556       0.08333333       0.00000000 </v>
   <v>      -0.25000000       0.08333333       0.00000000 </v>
   <v>      -0.19444444       0.08333333       0.00000000 </v>
   <v>      -0.13888889       0.08333333       0.00000000 </v>
   <v>      -0.08333333       0.08333333       0.00000000 </v>
   <v>      -0.02777778       0.08333333       0.00000000 </v>
   <v>       0.02777778       0.13888889       0.00000000 </v>
   <v>       0.08333333       0.13888889       0.00000000 </v>
   <v>       0.13888889       0.13888889       0.00000000 </v>
   <v>       0.19444444       0.13888889       0.00000000 </v>
   <v>       0.25000000       0.13888889       0.00000000 </v>
   <v>       0.30555556       0.13888889       0.00000000 </v>
   <v>       0.36111111       0.13888889       0.00000000 </v>
   <v>       0.41666667       0.13888889       0.00000000 </v>
   <v>       0.47222222       0.13888889       0.00000000 </v>
   <v>      -0.47222222       0.13888889       0.00000000 </v>
   <v>      -0.41666667       0.13888889       0.00000000 </v>
   <v>      -0.36111111       0.13888889       0.00000000 </v>
   <v>      -0.30555556       0.13888889       0.00000000 </v>
   <v>      -0.25000000       0.13888889       0.00000000 </v>
   <v>      -0.19444444       0.13888889       0.00000000 </v>
   <v>      -0.13888889       0.13888889       0.00000000 </v>
   <v>      -0.08333333       0.13888889       0.00000000 </v>
   <v>      -0.02777778       0.13888889       0.00000000 </v>
   <v>       0.02777778       0.19444444       0.00000000 </v>
   <v>       0.08333333       0.19444444       0.00000000 </v>
   <v>       0.13888889       0.19444444       0.00000000 </v>
   <v>       0.19444444       0.19444444       0.00000000 </v>
   <v>       0.25000000       0.19444444       0.00000000 </v>
   <v>       0.30555556       0.19444444       0.00000000 </v>
   <v>       0.36111111       0.19444444       0.00000000 </v>
   <v>       0.41666667       0.19444444       0.00000000 </v>
   <v>       0.47222222       0.19444444       0.00000000 </v>
   <v>      -0.47222222       0.19444444       0.00000000 </v>
   <v>      -0.41666667       0.19444444       0.00000000 </v>
   <v>      -0.36111111       0.19444444       0.00000000 </v>
   <v>      -0.30555556       0.19444444       0.00000000 </v>
   <v>      -0.25000000       0.19444444       0.00000000 </v>
   <v>      -0.19444444       0.19444444       0.00000000 </v>
   <v>      -0.13888889       0.19444444       0.00000000 </v>
   <v>      -0.08333333       0.19444444       0.00000000 </v>
   <v>      -0.02777778       0.19444444       0.00000000 </v>
   <v>       0.02777778       0.25000000       0.00000000 </v>
   <v>       0.08333333       0.25000000       0.00000000 </v>
   <v>       0.13888889       0.25000000       0.00000000 </v>
   <v>       0.19444444       0.25000000       0.00000000 </v>
   <v>       0.25000000       0.25000000       0.00000000 </v>
   <v>       0.30555556       0.25000000       0.00000000 </v>
   <v>       0.36111111       0.25000000       0.00000000 </v>
   <v>       0.41666667       0.25000000       0.00000000 </v>
   <v>       0.47222222       0.25000000       0.00000000 </v>
   <v>      -0.47222222       0.25000000       0.00000000 </v>
   <v>      -0.41666667       0.25000000       0.00000000 </v>
   <v>      -0.36111111       0.25000000       0.00000000 </v>
   <v>      -0.30555556       0.25000000       0.00000000 </v>
   <v>      -0.25000000       0.25000000       0.00000000 </v>
   <v>      -0.19444444       0.25000000       0.00000000 </v>
   <v>      -0.13888889       0.25000000       0.00000000 </v>
   <v>      -0.08333333       0.25000000       0.00000000 </v>
   <v>      -0.02777778       0.25000000       0.00000000 </v>
   <v>       0.02777778       0.30555556       0.00000000 </v>
   <v>       0.08333333       0.30555556       0.00000000 </v>
   <v>       0.13888889       0.30555556       0.00000000 </v>
   <v>       0.19444444       0.30555556       0.00000000 </v>
   <v>       0.25000000       0.30555556       0.00000000 </v>
   <v>       0.30555556       0.30555556       0.00000000 </v>
   <v>       0.36111111       0.30555556       0.00000000 </v>
   <v>       0.41666667       0.30555556       0.00000000 </v>
   <v>       0.47222222       0.30555556       0.00000000 </v>
   <v>      -0.47222222       0.30555556       0.00000000 </v>
   <v>      -0.41666667       0.30555556       0.00000000 </v>
   <v>      -0.36111111       0.30555556       0.00000000 </v>
   <v>      -0.30555556       0.30555556       0.00000000 </v>
   <v>      -0.25000000       0.30555556       0.00000000 </v>
   <v>      -0.19444444       0.30555556       0.00000000 </v>
   <v>      -0.13888889       0.30555556       0.00000000 </v>
   <v>      -0.08333333       0.30555556       0.00000000 </v>
   <v>      -0.02777778       0.30555556       0.00000000 </v>
   <v>       0.02777778       0.36111111       0.00000000 </v>
   <v>       0.08333333       0.36111111       0.00000000 </v>
   <v>       0.13888889       0.36111111       0.00000000 </v>
   <v>       0.19444444       0.36111111       0.00000000 </v>
   <v>       0.25000000       0.36111111       0.00000000 </v>
   <v>       0.30555556       0.36111111       0.00000000 </v>
   <v>       0.36111111       0.36111111       0.00000000 </v>
   <v>       0.41666667       0.36111111       0.00000000 </v>
   <v>       0.47222222       0.36111111       0.00000000 </v>
   <v>      -0.47222222       0.36111111       0.00000000 </v>
   <v>      -0.41666667       0.36111111       0.00000000 </v>
   <v>      -0.36111111       0.36111111       0.00000000 </v>
   <v>      -0.30555556       0.36111111       0.00000000 </v>
   <v>      -0.25000000       0.36111111       0.00000000 </v>
   <v>      -0.19444444       0.36111111       0.00000000 </v>
   <v>      -0.13888889       0.36111111       0.00000000 </v>
   <v>      -0.08333333       0.36111111       0.00000000 </v>
   <v>      -0.02777778       0.36111111       0.00000000 </v>
   <v>       0.02777778       0.41666667       0.00000000 </v>
   <v>       0.08333333       0.41666667       0.00000000 </v>
   <v>       0.13888889       0.41666667       0.00000000 </v>
   <v>       0.19444444       0.41666667       0.00000000 </v>
   <v>       0.25000000       0.41666667       0.00000000 </v>
   <v>       0.30555556       0.41666667       0.00000000 </v>
   <v>       0.36111111       0.41666667       0.00000000 </v>
   <v>       0.41666667       0.41666667       0.00000000 </v>
   <v>       0.47222222       0.41666667       0.00000000 </v>
   <v>      -0.47222222       0.41666667       0.00000000 </v>
   <v>      -0.41666667       0.41666667       0.00000000 </v>
   <v>      -0.36111111       0.41666667       0.00000000 </v>
   <v>      -0.30555556       0.41666667       0.00000000 </v>
   <v>      -0.25000000       0.41666667       0.00000000 </v>
   <v>      -0.19444444       0.41666667       0.00000000 </v>
   <v>      -0.13888889       0.41666667       0.00000000 </v>
   <v>      -0.08333333       0.41666667       0.00000000 </v>
   <v>      -0.02777778       0.41666667       0.00000000 </v>
   <v>       0.02777778       0.47222222       0.00000000 </v>
   <v>       0.08333333       0.47222222       0.00000000 </v>
   <v>       0.13888889       0.47222222       0.00000000 </v>
   <v>       0.19444444       0.47222222       0.00000000 </v>
   <v>       0.25000000       0.47222222       0.00000000 </v>
   <v>       0.30555556       0.47222222       0.00000000 </v>
   <v>       0.36111111       0.47222222       0.00000000 </v>
   <v>       0.41666667       0.47222222       0.00000000 </v>
   <v>       0.47222222       0.47222222       0.00000000 </v>
   <v>      -0.47222222       0.47222222       0.00000000 </v>
   <v>      -0.41666667       0.47222222       0.00000000 </v>
   <v>      -0.36111111       0.47222222       0.00000000 </v>
   <v>      -0.30555556       0.47222222       0.00000000 </v>
   <v>      -0.25000000       0.47222222       0.00000000 </v>
   <v>      -0.19444444       0.47222222       0.00000000 </v>
   <v>      -0.13888889       0.47222222       0.00000000 </v>
   <v>      -0.08333333       0.47222222       0.00000000 </v>
   <v>      -0.02777778       0.47222222       0.00000000 </v>
  </varray>
  <varray name="weights" >
   <v>       0.00617284 </v>
   <v>       0.00617284 </v>
   <v>       0.00617284 </v>
   <v>       0.00617284 </v>
   <v>       0.00617284 </v>
   <v>       0.00617284 </v>
   <v>       0.00617284 </v>
   <v>       0.00617284 </v>
   <v>       0.00617284 </v>
   <v>       0.00617284 </v>
   <v>       0.00617284 </v>
   <v>       0.00617284 </v>
   <v>       0.00617284 </v>
   <v>       0.00617284 </v>
   <v>       0.00617284 </v>
   <v>       0.00617284 </v>
   <v>       0.00617284 </v>
   <v>       0.00617284 </v>
   <v>       0.00617284 </v>
   <v>       0.00617284 </v>
   <v>       0.00617284 </v>
   <v>       0.00617284 </v>
   <v>       0.00617284 </v>
   <v>       0.00617284 </v>
   <v>       0.00617284 </v>
   <v>       0.00617284 </v>
   <v>       0.00617284 </v>
   <v>       0.00617284 </v>
   <v>       0.00617284 </v>
   <v>       0.00617284 </v>
   <v>       0.00617284 </v>
   <v>       0.00617284 </v>
   <v>       0.00617284 </v>
   <v>       0.00617284 </v>
   <v>       0.00617284 </v>
   <v>       0.00617284 </v>
   <v>       0.00617284 </v>
   <v>       0.00617284 </v>
   <v>       0.00617284 </v>
   <v>       0.00617284 </v>
   <v>       0.00617284 </v>
   <v>       0.00617284 </v>
   <v>       0.00617284 </v>
   <v>       0.00617284 </v>
   <v>       0.00617284 </v>
   <v>       0.00617284 </v>
   <v>       0.00617284 </v>
   <v>       0.00617284 </v>
   <v>       0.00617284 </v>
   <v>       0.00617284 </v>
   <v>       0.00617284 </v>
   <v>       0.00617284 </v>
   <v>       0.00617284 </v>
   <v>       0.00617284 </v>
   <v>       0.00617284 </v>
   <v>       0.00617284 </v>
   <v>       0.00617284 </v>
   <v>       0.00617284 </v>
   <v>       0.00617284 </v>
   <v>       0.00617284 </v>
   <v>       0.00617284 </v>
   <v>       0.00617284 </v>
   <v>       0.00617284 </v>
   <v>       0.00617284 </v>
   <v>       0.00617284 </v>
   <v>       0.00617284 </v>
   <v>       0.00617284 </v>
   <v>       0.00617284 </v>
   <v>       0.00617284 </v>
   <v>       0.00617284 </v>
   <v>       0.00617284 </v>
   <v>       0.00617284 </v>
   <v>       0.00617284 </v>
   <v>       0.00617284 </v>
   <v>       0.00617284 </v>
   <v>       0.00617284 </v>
   <v>       0.00617284 </v>
   <v>       0.00617284 </v>
   <v>       0.00617284 </v>
   <v>       0.00617284 </v>
   <v>       0.00617284 </v>
   <v>       0.00617284 </v>
   <v>       0.00617284 </v>
   <v>       0.00617284 </v>
   <v>       0.00617284 </v>
   <v>       0.00617284 </v>
   <v>       0.00617284 </v>
   <v>       0.00617284 </v>
   <v>       0.00617284 </v>
   <v>       0.00617284 </v>
   <v>       0.00617284 </v>
   <v>       0.00617284 </v>
   <v>       0.00617284 </v>
   <v>       0.00617284 </v>
   <v>       0.00617284 </v>
   <v>       0.00617284 </v>
   <v>       0.00617284 </v>
   <v>       0.00617284 </v>
   <v>       0.00617284 </v>
   <v>       0.00617284 </v>
   <v>       0.00617284 </v>
   <v>       0.00617284 </v>
   <v>       0.00617284 </v>
   <v>       0.00617284 </v>
   <v>       0.00617284 </v>
   <v>       0.00617284 </v>
   <v>       0.00617284 </v>
   <v>       0.00617284 </v>
   <v>       0.00617284 </v>
   <v>       0.00617284 </v>
   <v>       0.00617284 </v>
   <v>       0.00617284 </v>
   <v>       0.00617284 </v>
   <v>       0.00617284 </v>
   <v>       0.00617284 </v>
   <v>       0.00617284 </v>
   <v>       0.00617284 </v>
   <v>       0.00617284 </v>
   <v>       0.00617284 </v>
   <v>       0.00617284 </v>
   <v>       0.00617284 </v>
   <v>       0.00617284 </v>
   <v>       0.00617284 </v>
   <v>       0.00617284 </v>
   <v>       0.00617284 </v>
   <v>       0.00617284 </v>
   <v>       0.00617284 </v>
   <v>       0.00617284 </v>
   <v>       0.00617284 </v>
   <v>       0.00617284 </v>
   <v>       0.00617284 </v>
   <v>       0.00617284 </v>
   <v>       0.00617284 </v>
   <v>       0.00617284 </v>
   <v>       0.00617284 </v>
   <v>       0.00617284 </v>
   <v>       0.00617284 </v>
   <v>       0.00617284 </v>
   <v>       0.00617284 </v>
   <v>       0.00617284 </v>
   <v>       0.00617284 </v>
   <v>       0.00617284 </v>
   <v>       0.00617284 </v>
   <v>       0.00617284 </v>
   <v>       0.00617284 </v>
   <v>       0.00617284 </v>
   <v>       0.00617284 </v>
   <v>       0.00617284 </v>
   <v>       0.00617284 </v>
   <v>       0.00617284 </v>
   <v>       0.00617284 </v>
   <v>       0.00617284 </v>
   <v>       0.00617284 </v>
   <v>       0.00617284 </v>
   <v>       0.00617284 </v>
   <v>       0.00617284 </v>
   <v>       0.00617284 </v>
   <v>       0.00617284 </v>
   <v>       0.00617284 </v>
   <v>       0.00617284 </v>
   <v>       0.00617284 </v>
   <v>       0.00617284 </v>
  </varray>
 </kpoints>
 <parameters>
  <separator name="general" >
   <i type="string" name="SYSTEM">2D MoTe2 in a box</i>
   <i type="logical" name="LCOMPAT"> F  </i>
  </separator>
  <separator name="electronic" >
   <i type="string" name="PREC">accura</i>
   <i name="ENMAX">    350.00000000</i>
   <i name="ENAUG">    368.79200000</i>
   <i name="EDIFF">      0.00000100</i>
   <i type="int" name="IALGO">    38</i>
   <i type="int" name="IWAVPR">    11</i>
   <i type="int" name="NBANDS">    24</i>
   <i name="NELECT">     35.98000000</i>
   <i type="int" name="TURBO">     0</i>
   <i type="int" name="IRESTART">     0</i>
   <i type="int" name="NREBOOT">     0</i>
   <i type="int" name="NMIN">     0</i>
   <i name="EREF">      0.00000000</i>
   <separator name="electronic smearing" >
    <i type="int" name="ISMEAR">    -1</i>
    <i name="SIGMA">      0.02586521</i>
    <i name="KSPACING">      0.50000000</i>
    <i type="logical" name="KGAMMA"> T  </i>
   </separator>
   <separator name="electronic projectors" >
    <i type="logical" name="LREAL"> F  </i>
    <v name="ROPT">      0.00000000      0.00000000</v>
    <i type="int" name="LMAXPAW">  -100</i>
    <i type="int" name="LMAXMIX">     2</i>
    <i type="logical" name="NLSPLINE"> F  </i>
   </separator>
   <separator name="electronic startup" >
    <i type="int" name="ISTART">     0</i>
    <i type="int" name="ICHARG">     2</i>
    <i type="int" name="INIWAV">     1</i>
   </separator>
   <separator name="electronic spin" >
    <i type="int" name="ISPIN">     1</i>
    <i type="logical" name="LNONCOLLINEAR"> F  </i>
    <v name="MAGMOM">      1.00000000      1.00000000      1.00000000      1.00000000      1.00000000      1.00000000</v>
    <i name="NUPDOWN">     -1.00000000</i>
    <i type="logical" name="LSORBIT"> F  </i>
    <v name="SAXIS">      0.00000000      0.00000000      1.00000000</v>
    <i type="logical" name="LSPIRAL"> F  </i>
    <v name="QSPIRAL">      0.00000000      0.00000000      0.00000000</v>
    <i type="logical" name="LZEROZ"> F  </i>
   </separator>
   <separator name="electronic exchange-correlation" >
    <i type="logical" name="LASPH"> F  </i>
    <i type="logical" name="LMETAGGA"> F  </i>
   </separator>
   <separator name="electronic convergence" >
    <i type="int" name="NELM">    60</i>
    <i type="int" name="NELMDL">    -5</i>
    <i type="int" name="NELMIN">     2</i>
    <i name="ENINI">    350.00000000</i>
    <separator name="electronic convergence detail" >
     <i type="logical" name="LDIAG"> T  </i>
     <i type="logical" name="LSUBROT"> F  </i>
     <i name="WEIMIN">      0.00100000</i>
     <i name="EBREAK">      0.00000001</i>
     <i name="DEPER">      0.30000000</i>
     <i type="int" name="NRMM">     4</i>
     <i name="TIME">      0.40000000</i>
    </separator>
   </separator>
   <separator name="electronic mixer" >
    <i name="AMIX">      0.40000000</i>
    <i name="BMIX">      1.00000000</i>
    <i name="AMIN">      0.10000000</i>
    <i name="AMIX_MAG">      1.60000000</i>
    <i name="BMIX_MAG">      1.00000000</i>
    <separator name="electronic mixer details" >
     <i type="int" name="IMIX">     4</i>
     <i type="int" name="MAXMIX">   -45</i>
     <i name="WC">    100.00000000</i>
     <i type="int" name="INIMIX">     1</i>
     <i type="int" name="MIXPRE">     1</i>
     <i type="int" name="MREMOVE">     5</i>
    </separator>
   </separator>
   <separator name="electronic dipolcorrection" >
    <i type="logical" name="LDIPOL"> F  </i>
    <i type="logical" name="LMONO"> F  </i>
    <i type="int" name="IDIPOL">     0</i>
    <i name="EPSILON">      1.00000000</i>
    <v name="DIPOL">   -100.00000000   -100.00000000   -100.00000000</v>
    <i name="EFIELD">      0.00000000</i>
   </separator>
  </separator>
  <separator name="grids" >
   <i type="int" name="NGX">    24</i>
   <i type="int" name="NGY">    40</i>
   <i type="int" name="NGZ">    98</i>
   <i type="int" name="NGXF">    48</i>
   <i type="int" name="NGYF">    80</i>
   <i type="int" name="NGZF">   196</i>
   <i type="logical" name="ADDGRID"> F  </i>
  </separator>
  <separator name="ionic" >
   <i type="int" name="NSW">  1000</i>
   <i type="int" name="IBRION">     2</i>
   <i type="int" name="ISIF">     2</i>
   <i name="PSTRESS">      0.00000000</i>
   <i name="EDIFFG">      0.00001000</i>
   <i type="int" name="NFREE">     1</i>
   <i name="POTIM">      0.50000000</i>
   <i name="SMASS">     -3.00000000</i>
   <i name="SCALEE">      1.00000000</i>
  </separator>
  <separator name="ionic md" >
   <i name="TEBEG">      0.00010000</i>
   <i name="TEEND">      0.00010000</i>
   <i type="int" name="NBLOCK">     1</i>
   <i type="int" name="KBLOCK">  1000</i>
   <i type="int" name="NPACO">   256</i>
   <i name="APACO">     16.00000000</i>
  </separator>
  <separator name="symmetry" >
   <i type="int" name="ISYM">     0</i>
   <i name="SYMPREC">      0.00001000</i>
  </separator>
  <separator name="dos" >
   <i type="logical" name="LORBIT"> F  </i>
   <v name="RWIGS">     -1.00000000     -1.00000000</v>
   <i type="int" name="NEDOS">   301</i>
   <i name="EMIN">     10.00000000</i>
   <i name="EMAX">    -10.00000000</i>
   <i name="EFERMI">      0.00000000</i>
  </separator>
  <separator name="writing" >
   <i type="int" name="NWRITE">     3</i>
   <i type="logical" name="LWAVE"> F  </i>
   <i type="logical" name="LCHARG"> F  </i>
   <i type="logical" name="LPARD"> F  </i>
   <i type="logical" name="LVTOT"> F  </i>
   <i type="logical" name="LVHAR"> F  </i>
   <i type="logical" name="LELF"> F  </i>
   <i type="logical" name="LOPTICS"> F  </i>
   <v name="STM">      0.00000000      0.00000000      0.00000000      0.00000000      0.00000000      0.00000000      0.00000000</v>
  </separator>
  <separator name="performance" >
   <i type="int" name="NPAR">     8</i>
   <i type="int" name="NSIM">     4</i>
   <i type="int" name="NBLK">    -1</i>
   <i type="logical" name="LPLANE"> T  </i>
   <i type="logical" name="LSCALAPACK"> T  </i>
   <i type="logical" name="LSCAAWARE"> F  </i>
   <i type="logical" name="LSCALU"> F  </i>
   <i type="logical" name="LASYNC"> F  </i>
   <i type="logical" name="LORBITALREAL"> F  </i>
  </separator>
  <separator name="miscellaneous" >
   <i type="int" name="IDIOT">     3</i>
   <i type="logical" name="LMUSIC"> F  </i>
   <v name="POMASS">    127.60000000     95.94000000</v>
   <v name="DARWINR">      0.00000000      0.00000000</v>
   <v name="DARWINV">      1.00000000      1.00000000</v>
   <i type="logical" name="LCORR"> T  </i>
  </separator>
  <i type="logical" name="GGA_COMPAT"> T  </i>
  <i type="logical" name="LBERRY"> F  </i>
  <i type="int" name="ICORELEVEL">     0</i>
  <i type="logical" name="LDAU"> F  </i>
  <i type="int" name="I_CONSTRAINED_M">     0</i>
  <separator name="electronic exchange-correlation" >
   <i type="string" name="GGA">--</i>
   <i type="int" name="VOSKOWN">     0</i>
   <i type="logical" name="LHFCALC"> F  </i>
   <i type="string" name="PRECFOCK"></i>
   <i type="logical" name="LSYMGRAD"> F  </i>
   <i type="logical" name="LHFONE"> F  </i>
   <i type="logical" name="LRHFCALC"> F  </i>
   <i type="logical" name="LTHOMAS"> F  </i>
   <i type="logical" name="LMODELHF"> F  </i>
   <i name="ENCUT4O">     -1.00000000</i>
   <i type="int" name="EXXOEP">     0</i>
   <i type="int" name="FOURORBIT">     0</i>
   <i name="AEXX">      0.00000000</i>
   <i name="HFALPHA">      0.00000000</i>
   <i name="MCALPHA">      0.00000000</i>
   <i name="ALDAX">      1.00000000</i>
   <i name="AGGAX">      1.00000000</i>
   <i name="ALDAC">      1.00000000</i>
   <i name="AGGAC">      1.00000000</i>
   <i type="int" name="NKREDX">     1</i>
   <i type="int" name="NKREDY">     1</i>
   <i type="int" name="NKREDZ">     1</i>
   <i type="logical" name="SHIFTRED"> F  </i>
   <i type="logical" name="ODDONLY"> F  </i>
   <i type="logical" name="EVENONLY"> F  </i>
   <i type="int" name="LMAXFOCK">     0</i>
   <i type="int" name="NMAXFOCKAE">     0</i>
   <i type="logical" name="LFOCKAEDFT"> F  </i>
   <i name="HFSCREEN">      0.00000000</i>
   <i name="HFSCREENC">      0.00000000</i>
   <i type="int" name="NBANDSGWLOW">     0</i>
  </separator>
  <separator name="vdW DFT" >
   <i type="logical" name="LUSE_VDW"> F  </i>
   <i name="Zab_VDW">     -0.84910000</i>
   <i name="PARAM1">      0.12340000</i>
   <i name="PARAM2">      1.00000000</i>
   <i name="PARAM3">      0.00000000</i>
  </separator>
  <separator name="model GW" >
   <i type="int" name="MODEL_GW">     0</i>
   <i name="MODEL_EPS0">     35.17173760</i>
   <i name="MODEL_ALPHA">      1.00000000</i>
  </separator>
  <separator name="linear response parameters" >
   <i type="logical" name="LEPSILON"> F  </i>
   <i type="logical" name="LRPA"> F  </i>
   <i type="logical" name="LNABLA"> F  </i>
   <i type="logical" name="LVEL"> F  </i>
   <i type="int" name="KINTER">     0</i>
   <i name="CSHIFT">      0.10000000</i>
   <i name="OMEGAMAX">     -1.00000000</i>
   <i name="DEG_THRESHOLD">      0.00200000</i>
  </separator>
  <separator name="orbital magnetization" >
   <i type="logical" name="NUCIND"> F  </i>
   <v name="MAGPOS">      0.00000000      0.00000000      0.00000000</v>
   <i type="logical" name="LNICSALL"> T  </i>
   <i type="logical" name="ORBITALMAG"> F  </i>
   <i type="logical" name="LMAGBLOCH"> F  </i>
   <i type="logical" name="LCHIMAG"> F  </i>
   <i type="logical" name="LGAUGE"> T  </i>
   <i type="int" name="MAGATOM">     0</i>
   <v name="MAGDIPOL">      0.00000000      0.00000000      0.00000000</v>
   <v name="AVECCONST">      0.00000000      0.00000000      0.00000000</v>
  </separator>
  <separator name="response functions" >
   <i type="logical" name="LADDER"> F  </i>
   <i type="logical" name="LFXC"> F  </i>
   <i type="logical" name="LHARTREE"> T  </i>
   <i type="int" name="IBSE">     0</i>
   <i type="logical" name="LTCTE"> F  </i>
   <i type="logical" name="LTETE"> F  </i>
   <i type="logical" name="LTRIPLET"> F  </i>
   <i type="logical" name="LFXCEPS"> F  </i>
   <i type="logical" name="LFXHEG"> F  </i>
   <i type="logical" name="L2ORDER"> F  </i>
   <i type="logical" name="LUSEW"> F  </i>
   <i name="ENCUTGW">     -2.00000000</i>
   <i name="ENCUTGWSOFT">     -2.00000000</i>
   <i name="ENCUTLF">     -1.00000000</i>
   <i type="int" name="LMAXMP2">    -1</i>
   <i name="SCISSOR">      0.00000000</i>
   <i type="int" name="NOMEGA">     0</i>
   <i type="int" name="NOMEGAR">     0</i>
   <i type="int" name="NBANDSGW">    -1</i>
   <i type="int" name="NBANDSO">    -1</i>
   <i type="int" name="NBANDSV">    -1</i>
   <i type="int" name="NELM">     1</i>
   <i type="int" name="DIM">     3</i>
   <i type="int" name="ANTIRES">     0</i>
   <i name="OMEGAMAX">    -30.00000000</i>
   <i name="OMEGAMIN">    -30.00000000</i>
   <i name="OMEGATL">   -200.00000000</i>
   <i type="int" name="OMEGAGRID">     0</i>
   <i name="CSHIFT">     -0.10000000</i>
   <i type="logical" name="SELFENERGY"> F  </i>
   <i type="logical" name="LSPECTRAL"> F  </i>
   <i type="logical" name="ODDONLYGW"> F  </i>
   <i type="logical" name="EVENONLYGW"> F  </i>
   <i type="int" name="NKREDLFX">     1</i>
   <i type="int" name="NKREDLFY">     1</i>
   <i type="int" name="NKREDLFZ">     1</i>
   <i type="int" name="MAXMEM">  1800</i>
   <i type="int" name="TELESCOPE">     0</i>
   <i type="int" name="TAUPAR">     1</i>
  </separator>
  <separator name="External order field" >
   <i name="OFIELD_KAPPA">      0.00000000</i>
   <v name="OFIELD_K">      0.00000000      0.00000000      0.00000000</v>
   <i name="OFIELD_Q6_NEAR">      0.00000000</i>
   <i name="OFIELD_Q6_FAR">      0.00000000</i>
   <i name="OFIELD_A">      0.00000000</i>
  </separator>
 </parameters>
 <atominfo>
  <atoms>       6 </atoms>
  <types>       2 </types>
  <array name="atoms" >
   <dimension dim="1">ion</dimension>
   <field type="string">element</field>
   <field type="int">atomtype</field>
   <set>
    <rc><c>Te</c><c>   1</c></rc>
    <rc><c>Te</c><c>   1</c></rc>
    <rc><c>Te</c><c>   1</c></rc>
    <rc><c>Te</c><c>   1</c></rc>
    <rc><c>Mo</c><c>   2</c></rc>
    <rc><c>Mo</c><c>   2</c></rc>
   </set>
  </array>
  <array name="atomtypes" >
   <dimension dim="1">type</dimension>
   <field type="int">atomspertype</field>
   <field type="string">element</field>
   <field>mass</field>
   <field>valence</field>
   <field type="string">pseudopotential</field>
   <set>
    <rc><c>   4</c><c>Te</c><c>    127.60000000</c><c>      6.00000000</c><c>  PAW_PBE Te 08Apr2002                  </c></rc>
    <rc><c>   2</c><c>Mo</c><c>     95.94000000</c><c>      6.00000000</c><c>  PAW_PBE Mo 08Apr2002                  </c></rc>
   </set>
  </array>
 </atominfo>
 <structure name="initialpos" >
  <crystal>
   <varray name="basis" >
    <v>       3.45200000       0.00000000       0.00000000 </v>
    <v>       0.00000000       6.36800000       0.00000000 </v>
    <v>       0.00000000       0.00000000      16.00000000 </v>
   </varray>
   <i name="volume">    351.71737600 </i>
   <varray name="rec_basis" >
    <v>       0.28968714       0.00000000       0.00000000 </v>
    <v>       0.00000000       0.15703518       0.00000000 </v>
    <v>       0.00000000       0.00000000       0.06250000 </v>
   </varray>
  </crystal>
  <varray name="positions" >
   <v>       0.50000000       0.10163317       0.12913313 </v>
   <v>       0.50000000       0.74915672       0.90758437 </v>
   <v>       0.00000000       0.25741049       0.87086563 </v>
   <v>       0.00000000       0.60988065       0.09241625 </v>
   <v>       0.50000000       0.36059673       0.99406750 </v>
   <v>       0.00000000       0.99843907       0.00593312 </v>
  </varray>
 </structure>
 <calculation>
  <scstep>
   <time name="dav">    3.12    3.12</time>
   <time name="total">    3.17    3.18</time>
   <energy>
    <i name="alphaZ">     25.19170377 </i>
    <i name="ewald">   1706.63235767 </i>
    <i name="hartreedc">  -2986.48471468 </i>
    <i name="XCdc">   -233.78894118 </i>
    <i name="pawpsdc">   1362.14282323 </i>
    <i name="pawaedc">  -1065.87210056 </i>
    <i name="eentropy">     -0.00827150 </i>
    <i name="bandstr">     50.10794742 </i>
    <i name="atom">   1328.10454569 </i>
    <i name="e_fr_energy">    186.02534985 </i>
    <i name="e_wo_entrp">    186.03362135 </i>
    <i name="e_0_energy">    186.02948560 </i>
   </energy>
  </scstep>
  <scstep>
   <time name="dav">    3.92    3.95</time>
   <time name="total">    3.98    4.00</time>
   <energy>
    <i name="e_fr_energy">    -18.22485011 </i>
    <i name="e_wo_entrp">    -18.22249362 </i>
    <i name="e_0_energy">    -18.22367187 </i>
   </energy>
  </scstep>
  <scstep>
   <time name="dav">    3.57    3.57</time>
   <time name="total">    3.62    3.62</time>
   <energy>
    <i name="e_fr_energy">    -36.73985402 </i>
    <i name="e_wo_entrp">    -36.73706807 </i>
    <i name="e_0_energy">    -36.73846105 </i>
   </energy>
  </scstep>
  <scstep>
   <time name="dav">    4.03    4.03</time>
   <time name="total">    4.08    4.09</time>
   <energy>
    <i name="e_fr_energy">    -37.40803534 </i>
    <i name="e_wo_entrp">    -37.40534810 </i>
    <i name="e_0_energy">    -37.40669172 </i>
   </energy>
  </scstep>
  <scstep>
   <time name="dav">    3.87    3.87</time>
   <time name="total">    4.03    4.03</time>
   <energy>
    <i name="e_fr_energy">    -37.41838889 </i>
    <i name="e_wo_entrp">    -37.41570479 </i>
    <i name="e_0_energy">    -37.41704684 </i>
   </energy>
  </scstep>
  <scstep>
   <time name="dav">    3.75    3.75</time>
   <time name="total">    3.95    3.95</time>
   <energy>
    <i name="e_fr_energy">    -36.48032200 </i>
    <i name="e_wo_entrp">    -36.47710964 </i>
    <i name="e_0_energy">    -36.47871582 </i>
   </energy>
  </scstep>
  <scstep>
   <time name="dav">    3.47    3.47</time>
   <time name="total">    3.66    3.66</time>
   <energy>
    <i name="e_fr_energy">    -36.50626937 </i>
    <i name="e_wo_entrp">    -36.50287810 </i>
    <i name="e_0_energy">    -36.50457374 </i>
   </energy>
  </scstep>
  <scstep>
   <time name="dav">    3.54    3.54</time>
   <time name="total">    3.73    3.74</time>
   <energy>
    <i name="e_fr_energy">    -35.99991728 </i>
    <i name="e_wo_entrp">    -35.99702802 </i>
    <i name="e_0_energy">    -35.99847265 </i>
   </energy>
  </scstep>
  <scstep>
   <time name="dav">    4.00    4.00</time>
   <time name="total">    4.19    4.19</time>
   <energy>
    <i name="e_fr_energy">    -35.99145615 </i>
    <i name="e_wo_entrp">    -35.98836986 </i>
    <i name="e_0_energy">    -35.98991301 </i>
   </energy>
  </scstep>
  <scstep>
   <time name="dav">    3.62    3.64</time>
   <time name="total">    3.81    3.84</time>
   <energy>
    <i name="e_fr_energy">    -35.98555162 </i>
    <i name="e_wo_entrp">    -35.98258500 </i>
    <i name="e_0_energy">    -35.98406831 </i>
   </energy>
  </scstep>
  <scstep>
   <time name="dav">    4.27    4.30</time>
   <time name="total">    4.47    4.50</time>
   <energy>
    <i name="e_fr_energy">    -35.98432567 </i>
    <i name="e_wo_entrp">    -35.98132010 </i>
    <i name="e_0_energy">    -35.98282288 </i>
   </energy>
  </scstep>
  <scstep>
   <time name="dav">    3.92    3.92</time>
   <time name="total">    4.11    4.11</time>
   <energy>
    <i name="e_fr_energy">    -35.98377550 </i>
    <i name="e_wo_entrp">    -35.98079452 </i>
    <i name="e_0_energy">    -35.98228501 </i>
   </energy>
  </scstep>
  <scstep>
   <time name="dav">    3.91    3.91</time>
   <time name="total">    4.10    4.11</time>
   <energy>
    <i name="e_fr_energy">    -35.98361791 </i>
    <i name="e_wo_entrp">    -35.98064532 </i>
    <i name="e_0_energy">    -35.98213161 </i>
   </energy>
  </scstep>
  <scstep>
   <time name="dav">    3.38    3.38</time>
   <time name="total">    3.58    3.58</time>
   <energy>
    <i name="e_fr_energy">    -35.98339902 </i>
    <i name="e_wo_entrp">    -35.98042304 </i>
    <i name="e_0_energy">    -35.98191103 </i>
   </energy>
  </scstep>
  <scstep>
   <time name="dav">    3.42    3.42</time>
   <time name="total">    3.62    3.62</time>
   <energy>
    <i name="e_fr_energy">    -35.98314617 </i>
    <i name="e_wo_entrp">    -35.98016560 </i>
    <i name="e_0_energy">    -35.98165588 </i>
   </energy>
  </scstep>
  <scstep>
   <time name="dav">    3.90    3.90</time>
   <time name="total">    4.09    4.10</time>
   <energy>
    <i name="e_fr_energy">    -35.98318563 </i>
    <i name="e_wo_entrp">    -35.98020491 </i>
    <i name="e_0_energy">    -35.98169527 </i>
   </energy>
  </scstep>
  <scstep>
   <time name="dav">    3.73    3.73</time>
   <time name="total">    3.92    3.92</time>
   <energy>
    <i name="e_fr_energy">    -35.98334206 </i>
    <i name="e_wo_entrp">    -35.98036421 </i>
    <i name="e_0_energy">    -35.98185313 </i>
   </energy>
  </scstep>
  <scstep>
   <time name="dav">    3.38    3.41</time>
   <time name="total">    3.58    3.61</time>
   <energy>
    <i name="e_fr_energy">    -35.98346338 </i>
    <i name="e_wo_entrp">    -35.98048582 </i>
    <i name="e_0_energy">    -35.98197460 </i>
   </energy>
  </scstep>
  <scstep>
   <time name="dav">    3.30    3.30</time>
   <time name="total">    3.50    3.50</time>
   <energy>
    <i name="e_fr_energy">    -35.98353935 </i>
    <i name="e_wo_entrp">    -35.98056181 </i>
    <i name="e_0_energy">    -35.98205058 </i>
   </energy>
  </scstep>
  <scstep>
   <time name="dav">    2.95    2.95</time>
   <time name="total">    3.14    3.14</time>
   <energy>
    <i name="e_fr_energy">    -35.98359466 </i>
    <i name="e_wo_entrp">    -35.98061661 </i>
    <i name="e_0_energy">    -35.98210563 </i>
   </energy>
  </scstep>
  <scstep>
   <time name="dav">    2.86    2.86</time>
   <time name="total">    3.06    3.06</time>
   <energy>
    <i name="e_fr_energy">    -35.98360911 </i>
    <i name="e_wo_entrp">    -35.98063119 </i>
    <i name="e_0_energy">    -35.98212015 </i>
   </energy>
  </scstep>
  <scstep>
   <time name="dav">    2.82    2.82</time>
   <time name="total">    3.01    3.01</time>
   <energy>
    <i name="e_fr_energy">    -35.98361584 </i>
    <i name="e_wo_entrp">    -35.98063793 </i>
    <i name="e_0_energy">    -35.98212689 </i>
   </energy>
  </scstep>
  <scstep>
   <time name="dav">    2.65    2.65</time>
   <time name="total">    2.85    2.85</time>
   <energy>
    <i name="e_fr_energy">    -35.98361707 </i>
    <i name="e_wo_entrp">    -35.98063901 </i>
    <i name="e_0_energy">    -35.98212804 </i>
   </energy>
  </scstep>
  <scstep>
   <time name="dav">    2.52    2.52</time>
   <time name="total">    2.60    2.60</time>
   <energy>
    <i name="alphaZ">     25.19170377 </i>
    <i name="ewald">   1706.63235767 </i>
    <i name="hartreedc">  -3004.08179863 </i>
    <i name="XCdc">   -232.33179078 </i>
    <i name="pawpsdc">   2699.54560817 </i>
    <i name="pawaedc">  -2405.99018327 </i>
    <i name="eentropy">     -0.00297806 </i>
    <i name="bandstr">   -153.05108173 </i>
    <i name="atom">   1328.10454569 </i>
    <i name="e_fr_energy">    -35.98361718 </i>
    <i name="e_wo_entrp">    -35.98063911 </i>
    <i name="e_0_energy">    -35.98212814 </i>
   </energy>
  </scstep>
  <structure>
   <crystal>
    <varray name="basis" >
     <v>       3.45200000       0.00000000       0.00000000 </v>
     <v>       0.00000000       6.36800000       0.00000000 </v>
     <v>       0.00000000       0.00000000      16.00000000 </v>
    </varray>
    <i name="volume">    351.71737600 </i>
    <varray name="rec_basis" >
     <v>       0.28968714       0.00000000       0.00000000 </v>
     <v>       0.00000000       0.15703518       0.00000000 </v>
     <v>       0.00000000       0.00000000       0.06250000 </v>
    </varray>
   </crystal>
   <varray name="positions" >
    <v>       0.50000000       0.10163317       0.12913313 </v>
    <v>       0.50000000       0.74915672       0.90758437 </v>
    <v>       0.00000000       0.25741049       0.87086563 </v>
    <v>       0.00000000       0.60988065       0.09241625 </v>
    <v>       0.50000000       0.36059673       0.99406750 </v>
    <v>       0.00000000       0.99843907       0.00593312 </v>
   </varray>
  </structure>
  <varray name="forces" >
   <v>       0.00000001      -0.00572570       0.00746958 </v>
   <v>       0.00000000      -0.00087625      -0.00371634 </v>
   <v>       0.00000001       0.00542541      -0.00712783 </v>
   <v>      -0.00000002       0.00089397       0.00376596 </v>
   <v>      -0.00000000       0.00092046      -0.00965553 </v>
   <v>      -0.00000001      -0.00063790       0.00926417 </v>
  </varray>
  <varray name="stress" >
   <v>      -1.20288805       0.00000008       0.00000147 </v>
   <v>       0.00000010      -0.80615856      -0.08786683 </v>
   <v>       0.00000152      -0.08786690      -0.77488750 </v>
  </varray>
  <energy>
   <i name="e_fr_energy">    -35.98361718 </i>
   <i name="e_wo_entrp">    -35.98212814 </i>
   <i name="e_0_energy">     -0.00297806 </i>
  </energy>
  <time name="totalsc">   89.56   89.73</time>
 </calculation>
 <calculation>
  <scstep>
   <time name="dav">    3.13    3.13</time>
   <time name="total">    3.28    3.28</time>
   <energy>
    <i name="alphaZ">     25.19170377 </i>
    <i name="ewald">   1706.20497261 </i>
    <i name="hartreedc">  -3003.66904176 </i>
    <i name="XCdc">   -232.33399453 </i>
    <i name="pawpsdc">   2699.54132932 </i>
    <i name="pawaedc">  -2405.98592208 </i>
    <i name="eentropy">     -0.00297347 </i>
    <i name="bandstr">   -153.03424500 </i>
    <i name="atom">   1328.10454569 </i>
    <i name="e_fr_energy">    -35.98362545 </i>
    <i name="e_wo_entrp">    -35.98065198 </i>
    <i name="e_0_energy">    -35.98213872 </i>
   </energy>
  </scstep>
  <scstep>
   <time name="dav">    3.57    3.57</time>
   <time name="total">    3.76    3.76</time>
   <energy>
    <i name="e_fr_energy">    -35.98362671 </i>
    <i name="e_wo_entrp">    -35.98065285 </i>
    <i name="e_0_energy">    -35.98213978 </i>
   </energy>
  </scstep>
  <scstep>
   <time name="dav">    2.76    2.79</time>
   <time name="total">    2.85    2.87</time>
   <energy>
    <i name="alphaZ">     25.19170377 </i>
    <i name="ewald">   1706.20497261 </i>
    <i name="hartreedc">  -3003.66788538 </i>
    <i name="XCdc">   -232.33381704 </i>
    <i name="pawpsdc">   2699.08183793 </i>
    <i name="pawaedc">  -2405.52572146 </i>
    <i name="eentropy">     -0.00297343 </i>
    <i name="bandstr">   -153.03628903 </i>
    <i name="atom">   1328.10454569 </i>
    <i name="e_fr_energy">    -35.98362634 </i>
    <i name="e_wo_entrp">    -35.98065291 </i>
    <i name="e_0_energy">    -35.98213962 </i>
   </energy>
  </scstep>
  <structure>
   <crystal>
    <varray name="basis" >
     <v>       3.45200000       0.00000000       0.00000000 </v>
     <v>       0.00000000       6.36800000       0.00000000 </v>
     <v>       0.00000000       0.00000000      16.00000000 </v>
    </varray>
    <i name="volume">    351.71737600 </i>
    <varray name="rec_basis" >
     <v>       0.28968714       0.00000000       0.00000000 </v>
     <v>       0.00000000       0.15703518       0.00000000 </v>
     <v>       0.00000000       0.00000000       0.06250000 </v>
    </varray>
   </crystal>
   <varray name="positions" >
    <v>       0.50000000       0.10158979       0.12915565 </v>
    <v>       0.50000000       0.74915008       0.90757317 </v>
    <v>       0.00000000       0.25745159       0.87084413 </v>
    <v>      -0.00000000       0.60988743       0.09242760 </v>
    <v>       0.50000000       0.36060371       0.99403839 </v>
    <v>      -0.00000000       0.99843424       0.00596106 </v>
   </varray>
  </structure>
  <varray name="forces" >
   <v>      -0.00000016      -0.00143422       0.00347051 </v>
   <v>       0.00000010       0.00143429      -0.00100119 </v>
   <v>       0.00000013       0.00125645      -0.00359340 </v>
   <v>      -0.00000002      -0.00136737       0.00093906 </v>
   <v>      -0.00000018      -0.00240055       0.00171923 </v>
   <v>       0.00000014       0.00251139      -0.00153421 </v>
  </varray>
  <varray name="stress" >
   <v>      -1.21922338      -0.00000124      -0.00000012 </v>
   <v>      -0.00000131      -0.87541220      -0.03967639 </v>
   <v>      -0.00000007      -0.03967621      -0.89287742 </v>
  </varray>
  <energy>
   <i name="e_fr_energy">    -35.98362634 </i>
   <i name="e_wo_entrp">    -35.98213962 </i>
   <i name="e_0_energy">     -0.00297343 </i>
  </energy>
  <time name="totalsc">   11.52   11.55</time>
 </calculation>
 <calculation>
  <scstep>
   <time name="dav">    3.13    3.13</time>
   <time name="total">    3.27    3.27</time>
   <energy>
    <i name="alphaZ">     25.19170377 </i>
    <i name="ewald">   1706.15908442 </i>
    <i name="hartreedc">  -3003.62294008 </i>
    <i name="XCdc">   -232.33392599 </i>
    <i name="pawpsdc">   2699.04472965 </i>
    <i name="pawaedc">  -2405.48827683 </i>
    <i name="eentropy">     -0.00297306 </i>
    <i name="bandstr">   -153.03557353 </i>
    <i name="atom">   1328.10454569 </i>
    <i name="e_fr_energy">    -35.98362597 </i>
    <i name="e_wo_entrp">    -35.98065291 </i>
    <i name="e_0_energy">    -35.98213944 </i>
   </energy>
  </scstep>
  <scstep>
   <time name="dav">    2.49    2.49</time>
   <time name="total">    2.57    2.58</time>
   <energy>
    <i name="alphaZ">     25.19170377 </i>
    <i name="ewald">   1706.15908442 </i>
    <i name="hartreedc">  -3003.62595706 </i>
    <i name="XCdc">   -232.33398128 </i>
    <i name="pawpsdc">   2698.99194160 </i>
    <i name="pawaedc">  -2405.43539185 </i>
    <i name="eentropy">     -0.00297269 </i>
    <i name="bandstr">   -153.03259848 </i>
    <i name="atom">   1328.10454569 </i>
    <i name="e_fr_energy">    -35.98362587 </i>
    <i name="e_wo_entrp">    -35.98065319 </i>
    <i name="e_0_energy">    -35.98213953 </i>
   </energy>
  </scstep>
  <structure>
   <crystal>
    <varray name="basis" >
     <v>       3.45200000       0.00000000       0.00000000 </v>
     <v>       0.00000000       6.36800000       0.00000000 </v>
     <v>       0.00000000       0.00000000      16.00000000 </v>
    </varray>
    <i name="volume">    351.71737600 </i>
    <varray name="rec_basis" >
     <v>       0.28968714       0.00000000       0.00000000 </v>
     <v>       0.00000000       0.15703518       0.00000000 </v>
     <v>       0.00000000       0.00000000       0.06250000 </v>
    </varray>
   </crystal>
   <varray name="positions" >
    <v>       0.50000000       0.10158513       0.12915807 </v>
    <v>       0.50000000       0.74914937       0.90757197 </v>
    <v>       0.00000000       0.25745600       0.87084183 </v>
    <v>      -0.00000000       0.60988815       0.09242882 </v>
    <v>       0.50000000       0.36060446       0.99403526 </v>
    <v>      -0.00000000       0.99843372       0.00596406 </v>
   </varray>
  </structure>
  <varray name="forces" >
   <v>      -0.00000011      -0.00103088       0.00317719 </v>
   <v>       0.00000010       0.00152106      -0.00075777 </v>
   <v>       0.00000010       0.00090530      -0.00330391 </v>
   <v>      -0.00000000      -0.00158948       0.00060995 </v>
   <v>      -0.00000007      -0.00275806       0.00338774 </v>
   <v>      -0.00000001       0.00295205      -0.00311321 </v>
  </varray>
  <varray name="stress" >
   <v>      -1.21326658      -0.00000081       0.00000032 </v>
   <v>      -0.00000077      -0.88254922      -0.03148772 </v>
   <v>       0.00000038      -0.03148780      -0.91190929 </v>
  </varray>
  <energy>
   <i name="e_fr_energy">    -35.98362587 </i>
   <i name="e_wo_entrp">    -35.98213953 </i>
   <i name="e_0_energy">     -0.00297269 </i>
  </energy>
  <time name="totalsc">    7.40    7.41</time>
  <eigenvalues>
   <array>
    <dimension dim="1">band</dimension>
    <dimension dim="2">kpoint</dimension>
    <dimension dim="3">spin</dimension>
    <field>eigene</field>
    <field>occ</field>
    <set>
     <set comment="spin 1">
      <set comment="kpoint 1">
       <r>  -12.4619    1.0000 </r>
       <r>  -11.5622    1.0000 </r>
       <r>  -10.7545    1.0000 </r>
       <r>  -10.4925    1.0000 </r>
       <r>   -5.2404    1.0000 </r>
       <r>   -4.5675    1.0000 </r>
       <r>   -4.3078    1.0000 </r>
       <r>   -3.5565    1.0000 </r>
       <r>   -2.4300    1.0000 </r>
       <r>   -2.0186    1.0000 </r>
       <r>   -1.9605    1.0000 </r>
       <r>   -1.6512    1.0000 </r>
       <r>   -1.3150    1.0000 </r>
       <r>   -0.9549    1.0000 </r>
       <r>   -0.6770    1.0000 </r>
       <r>   -0.2196    1.0000 </r>
       <r>   -0.0007    1.0000 </r>
       <r>    0.5953    0.0007 </r>
       <r>    0.9028    0.0000 </r>
       <r>    1.5206    0.0000 </r>
       <r>    2.0365    0.0000 </r>
       <r>    2.4248    0.0000 </r>
       <r>    2.6230    0.0000 </r>
       <r>    3.5258    0.0000 </r>
      </set>
      <set comment="kpoint 2">
       <r>  -12.3927    1.0000 </r>
       <r>  -11.5153    1.0000 </r>
       <r>  -10.7187    1.0000 </r>
       <r>  -10.4465    1.0000 </r>
       <r>   -5.1682    1.0000 </r>
       <r>   -4.4888    1.0000 </r>
       <r>   -4.2785    1.0000 </r>
       <r>   -3.5250    1.0000 </r>
       <r>   -2.4696    1.0000 </r>
       <r>   -2.1749    1.0000 </r>
       <r>   -2.0542    1.0000 </r>
       <r>   -1.7109    1.0000 </r>
       <r>   -1.3136    1.0000 </r>
       <r>   -0.9133    1.0000 </r>
       <r>   -0.7102    1.0000 </r>
       <r>   -0.3918    1.0000 </r>
       <r>   -0.0051    1.0000 </r>
       <r>    0.4434    0.1968 </r>
       <r>    0.5877    0.0009 </r>
       <r>    1.6665    0.0000 </r>
       <r>    2.1430    0.0000 </r>
       <r>    2.3657    0.0000 </r>
       <r>    2.4325    0.0000 </r>
       <r>    3.1159    0.0000 </r>
      </set>
      <set comment="kpoint 3">
       <r>  -12.2562    1.0000 </r>
       <r>  -11.4238    1.0000 </r>
       <r>  -10.6505    1.0000 </r>
       <r>  -10.3593    1.0000 </r>
       <r>   -5.0297    1.0000 </r>
       <r>   -4.3528    1.0000 </r>
       <r>   -4.2147    1.0000 </r>
       <r>   -3.4752    1.0000 </r>
       <r>   -2.5492    1.0000 </r>
       <r>   -2.4574    1.0000 </r>
       <r>   -2.1222    1.0000 </r>
       <r>   -1.9411    1.0000 </r>
       <r>   -1.3444    1.0000 </r>
       <r>   -1.0275    1.0000 </r>
       <r>   -0.8048    1.0000 </r>
       <r>   -0.5267    1.0000 </r>
       <r>   -0.0125    1.0000 </r>
       <r>    0.0903    1.0000 </r>
       <r>    0.3617    0.8524 </r>
       <r>    1.6359    0.0000 </r>
       <r>    2.1996    0.0000 </r>
       <r>    2.3005    0.0000 </r>
       <r>    2.4089    0.0000 </r>
       <r>    2.5691    0.0000 </r>
      </set>
      <set comment="kpoint 4">
       <r>  -12.0561    1.0000 </r>
       <r>  -11.2921    1.0000 </r>
       <r>  -10.5571    1.0000 </r>
       <r>  -10.2414    1.0000 </r>
       <r>   -4.8386    1.0000 </r>
       <r>   -4.2642    1.0000 </r>
       <r>   -4.0456    1.0000 </r>
       <r>   -3.4332    1.0000 </r>
       <r>   -2.8469    1.0000 </r>
       <r>   -2.6237    1.0000 </r>
       <r>   -2.3081    1.0000 </r>
       <r>   -2.2066    1.0000 </r>
       <r>   -1.3912    1.0000 </r>
       <r>   -1.2284    1.0000 </r>
       <r>   -1.0791    1.0000 </r>
       <r>   -0.7097    1.0000 </r>
       <r>   -0.3297    1.0000 </r>
       <r>    0.0096    1.0000 </r>
       <r>    0.3524    0.8923 </r>
       <r>    1.4606    0.0000 </r>
       <r>    2.1012    0.0000 </r>
       <r>    2.2159    0.0000 </r>
       <r>    2.3922    0.0000 </r>
       <r>    2.4196    0.0000 </r>
      </set>
      <set comment="kpoint 5">
       <r>  -11.7988    1.0000 </r>
       <r>  -11.1276    1.0000 </r>
       <r>  -10.4501    1.0000 </r>
       <r>  -10.1114    1.0000 </r>
       <r>   -4.6234    1.0000 </r>
       <r>   -4.2648    1.0000 </r>
       <r>   -3.7793    1.0000 </r>
       <r>   -3.4777    1.0000 </r>
       <r>   -3.3100    1.0000 </r>
       <r>   -2.6618    1.0000 </r>
       <r>   -2.5185    1.0000 </r>
       <r>   -2.4261    1.0000 </r>
       <r>   -1.7016    1.0000 </r>
       <r>   -1.4158    1.0000 </r>
       <r>   -1.3504    1.0000 </r>
       <r>   -0.9855    1.0000 </r>
       <r>   -0.5425    1.0000 </r>
       <r>   -0.0420    1.0000 </r>
       <r>    0.4988    0.0280 </r>
       <r>    1.3494    0.0000 </r>
       <r>    1.8325    0.0000 </r>
       <r>    2.2400    0.0000 </r>
       <r>    2.3618    0.0000 </r>
       <r>    2.5094    0.0000 </r>
      </set>
      <set comment="kpoint 6">
       <r>  -11.4945    1.0000 </r>
       <r>  -10.9416    1.0000 </r>
       <r>  -10.3454    1.0000 </r>
       <r>   -9.9981    1.0000 </r>
       <r>   -4.4438    1.0000 </r>
       <r>   -4.3174    1.0000 </r>
       <r>   -3.9639    1.0000 </r>
       <r>   -3.4801    1.0000 </r>
       <r>   -3.3315    1.0000 </r>
       <r>   -2.8073    1.0000 </r>
       <r>   -2.6834    1.0000 </r>
       <r>   -2.5971    1.0000 </r>
       <r>   -2.2390    1.0000 </r>
       <r>   -1.5301    1.0000 </r>
       <r>   -1.4060    1.0000 </r>
       <r>   -1.2283    1.0000 </r>
       <r>   -0.6912    1.0000 </r>
       <r>   -0.1773    1.0000 </r>
       <r>    0.7367    0.0000 </r>
       <r>    1.3209    0.0000 </r>
       <r>    1.7337    0.0000 </r>
       <r>    2.2592    0.0000 </r>
       <r>    2.3464    0.0000 </r>
       <r>    2.4653    0.0000 </r>
      </set>
      <set comment="kpoint 7">
       <r>  -11.1596    1.0000 </r>
       <r>  -10.7505    1.0000 </r>
       <r>  -10.2624    1.0000 </r>
       <r>   -9.9402    1.0000 </r>
       <r>   -4.4712    1.0000 </r>
       <r>   -4.3434    1.0000 </r>
       <r>   -4.3119    1.0000 </r>
       <r>   -3.4112    1.0000 </r>
       <r>   -3.2556    1.0000 </r>
       <r>   -3.0925    1.0000 </r>
       <r>   -2.8389    1.0000 </r>
       <r>   -2.7990    1.0000 </r>
       <r>   -2.2241    1.0000 </r>
       <r>   -1.6896    1.0000 </r>
       <r>   -1.4403    1.0000 </r>
       <r>   -1.3275    1.0000 </r>
       <r>   -0.8519    1.0000 </r>
       <r>   -0.3899    1.0000 </r>
       <r>    1.0113    0.0000 </r>
       <r>    1.3691    0.0000 </r>
       <r>    1.7579    0.0000 </r>
       <r>    2.0892    0.0000 </r>
       <r>    2.2792    0.0000 </r>
       <r>    2.4867    0.0000 </r>
      </set>
      <set comment="kpoint 8">
       <r>  -10.8221    1.0000 </r>
       <r>  -10.5780    1.0000 </r>
       <r>  -10.2170    1.0000 </r>
       <r>   -9.9739    1.0000 </r>
       <r>   -4.6386    1.0000 </r>
       <r>   -4.4664    1.0000 </r>
       <r>   -4.3193    1.0000 </r>
       <r>   -3.8422    1.0000 </r>
       <r>   -3.3176    1.0000 </r>
       <r>   -3.2272    1.0000 </r>
       <r>   -2.7515    1.0000 </r>
       <r>   -2.6109    1.0000 </r>
       <r>   -2.0874    1.0000 </r>
       <r>   -1.8735    1.0000 </r>
       <r>   -1.4658    1.0000 </r>
       <r>   -1.3054    1.0000 </r>
       <r>   -1.0060    1.0000 </r>
       <r>   -0.6639    1.0000 </r>
       <r>    1.2714    0.0000 </r>
       <r>    1.4582    0.0000 </r>
       <r>    1.8125    0.0000 </r>
       <r>    1.9099    0.0000 </r>
       <r>    2.1648    0.0000 </r>
       <r>    2.4957    0.0000 </r>
      </set>
      <set comment="kpoint 9">
       <r>  -10.5426    1.0000 </r>
       <r>  -10.4679    1.0000 </r>
       <r>  -10.1964    1.0000 </r>
       <r>  -10.0983    1.0000 </r>
       <r>   -4.6438    1.0000 </r>
       <r>   -4.5363    1.0000 </r>
       <r>   -4.3403    1.0000 </r>
       <r>   -4.2121    1.0000 </r>
       <r>   -3.3812    1.0000 </r>
       <r>   -3.3486    1.0000 </r>
       <r>   -2.4594    1.0000 </r>
       <r>   -2.3353    1.0000 </r>
       <r>   -2.1761    1.0000 </r>
       <r>   -2.0852    1.0000 </r>
       <r>   -1.3320    1.0000 </r>
       <r>   -1.2525    1.0000 </r>
       <r>   -1.1013    1.0000 </r>
       <r>   -0.9616    1.0000 </r>
       <r>    1.4506    0.0000 </r>
       <r>    1.5041    0.0000 </r>
       <r>    1.8058    0.0000 </r>
       <r>    1.8098    0.0000 </r>
       <r>    2.2236    0.0000 </r>
       <r>    2.3821    0.0000 </r>
      </set>
      <set comment="kpoint 10">
       <r>  -10.5426    1.0000 </r>
       <r>  -10.4679    1.0000 </r>
       <r>  -10.1964    1.0000 </r>
       <r>  -10.0983    1.0000 </r>
       <r>   -4.6438    1.0000 </r>
       <r>   -4.5363    1.0000 </r>
       <r>   -4.3403    1.0000 </r>
       <r>   -4.2121    1.0000 </r>
       <r>   -3.3812    1.0000 </r>
       <r>   -3.3486    1.0000 </r>
       <r>   -2.4594    1.0000 </r>
       <r>   -2.3353    1.0000 </r>
       <r>   -2.1761    1.0000 </r>
       <r>   -2.0852    1.0000 </r>
       <r>   -1.3320    1.0000 </r>
       <r>   -1.2525    1.0000 </r>
       <r>   -1.1013    1.0000 </r>
       <r>   -0.9616    1.0000 </r>
       <r>    1.4506    0.0000 </r>
       <r>    1.5041    0.0000 </r>
       <r>    1.8058    0.0000 </r>
       <r>    1.8098    0.0000 </r>
       <r>    2.2236    0.0000 </r>
       <r>    2.3821    0.0000 </r>
      </set>
      <set comment="kpoint 11">
       <r>  -10.8221    1.0000 </r>
       <r>  -10.5780    1.0000 </r>
       <r>  -10.2170    1.0000 </r>
       <r>   -9.9739    1.0000 </r>
       <r>   -4.6386    1.0000 </r>
       <r>   -4.4664    1.0000 </r>
       <r>   -4.3193    1.0000 </r>
       <r>   -3.8422    1.0000 </r>
       <r>   -3.3176    1.0000 </r>
       <r>   -3.2272    1.0000 </r>
       <r>   -2.7515    1.0000 </r>
       <r>   -2.6109    1.0000 </r>
       <r>   -2.0874    1.0000 </r>
       <r>   -1.8735    1.0000 </r>
       <r>   -1.4658    1.0000 </r>
       <r>   -1.3054    1.0000 </r>
       <r>   -1.0060    1.0000 </r>
       <r>   -0.6639    1.0000 </r>
       <r>    1.2714    0.0000 </r>
       <r>    1.4582    0.0000 </r>
       <r>    1.8125    0.0000 </r>
       <r>    1.9099    0.0000 </r>
       <r>    2.1648    0.0000 </r>
       <r>    2.4957    0.0000 </r>
      </set>
      <set comment="kpoint 12">
       <r>  -11.1596    1.0000 </r>
       <r>  -10.7505    1.0000 </r>
       <r>  -10.2624    1.0000 </r>
       <r>   -9.9402    1.0000 </r>
       <r>   -4.4712    1.0000 </r>
       <r>   -4.3434    1.0000 </r>
       <r>   -4.3119    1.0000 </r>
       <r>   -3.4112    1.0000 </r>
       <r>   -3.2556    1.0000 </r>
       <r>   -3.0925    1.0000 </r>
       <r>   -2.8389    1.0000 </r>
       <r>   -2.7990    1.0000 </r>
       <r>   -2.2241    1.0000 </r>
       <r>   -1.6896    1.0000 </r>
       <r>   -1.4403    1.0000 </r>
       <r>   -1.3275    1.0000 </r>
       <r>   -0.8519    1.0000 </r>
       <r>   -0.3899    1.0000 </r>
       <r>    1.0113    0.0000 </r>
       <r>    1.3691    0.0000 </r>
       <r>    1.7579    0.0000 </r>
       <r>    2.0892    0.0000 </r>
       <r>    2.2792    0.0000 </r>
       <r>    2.4867    0.0000 </r>
      </set>
      <set comment="kpoint 13">
       <r>  -11.4945    1.0000 </r>
       <r>  -10.9416    1.0000 </r>
       <r>  -10.3454    1.0000 </r>
       <r>   -9.9981    1.0000 </r>
       <r>   -4.4438    1.0000 </r>
       <r>   -4.3174    1.0000 </r>
       <r>   -3.9639    1.0000 </r>
       <r>   -3.4801    1.0000 </r>
       <r>   -3.3315    1.0000 </r>
       <r>   -2.8073    1.0000 </r>
       <r>   -2.6834    1.0000 </r>
       <r>   -2.5971    1.0000 </r>
       <r>   -2.2390    1.0000 </r>
       <r>   -1.5301    1.0000 </r>
       <r>   -1.4060    1.0000 </r>
       <r>   -1.2283    1.0000 </r>
       <r>   -0.6912    1.0000 </r>
       <r>   -0.1773    1.0000 </r>
       <r>    0.7367    0.0000 </r>
       <r>    1.3209    0.0000 </r>
       <r>    1.7337    0.0000 </r>
       <r>    2.2592    0.0000 </r>
       <r>    2.3464    0.0000 </r>
       <r>    2.4653    0.0000 </r>
      </set>
      <set comment="kpoint 14">
       <r>  -11.7988    1.0000 </r>
       <r>  -11.1276    1.0000 </r>
       <r>  -10.4501    1.0000 </r>
       <r>  -10.1114    1.0000 </r>
       <r>   -4.6234    1.0000 </r>
       <r>   -4.2648    1.0000 </r>
       <r>   -3.7793    1.0000 </r>
       <r>   -3.4777    1.0000 </r>
       <r>   -3.3100    1.0000 </r>
       <r>   -2.6618    1.0000 </r>
       <r>   -2.5185    1.0000 </r>
       <r>   -2.4261    1.0000 </r>
       <r>   -1.7016    1.0000 </r>
       <r>   -1.4158    1.0000 </r>
       <r>   -1.3504    1.0000 </r>
       <r>   -0.9855    1.0000 </r>
       <r>   -0.5425    1.0000 </r>
       <r>   -0.0420    1.0000 </r>
       <r>    0.4988    0.0280 </r>
       <r>    1.3494    0.0000 </r>
       <r>    1.8325    0.0000 </r>
       <r>    2.2400    0.0000 </r>
       <r>    2.3618    0.0000 </r>
       <r>    2.5094    0.0000 </r>
      </set>
      <set comment="kpoint 15">
       <r>  -12.0561    1.0000 </r>
       <r>  -11.2921    1.0000 </r>
       <r>  -10.5571    1.0000 </r>
       <r>  -10.2414    1.0000 </r>
       <r>   -4.8386    1.0000 </r>
       <r>   -4.2642    1.0000 </r>
       <r>   -4.0456    1.0000 </r>
       <r>   -3.4332    1.0000 </r>
       <r>   -2.8469    1.0000 </r>
       <r>   -2.6237    1.0000 </r>
       <r>   -2.3081    1.0000 </r>
       <r>   -2.2066    1.0000 </r>
       <r>   -1.3912    1.0000 </r>
       <r>   -1.2284    1.0000 </r>
       <r>   -1.0791    1.0000 </r>
       <r>   -0.7097    1.0000 </r>
       <r>   -0.3297    1.0000 </r>
       <r>    0.0096    1.0000 </r>
       <r>    0.3524    0.8923 </r>
       <r>    1.4606    0.0000 </r>
       <r>    2.1012    0.0000 </r>
       <r>    2.2159    0.0000 </r>
       <r>    2.3922    0.0000 </r>
       <r>    2.4196    0.0000 </r>
      </set>
      <set comment="kpoint 16">
       <r>  -12.2562    1.0000 </r>
       <r>  -11.4238    1.0000 </r>
       <r>  -10.6505    1.0000 </r>
       <r>  -10.3593    1.0000 </r>
       <r>   -5.0297    1.0000 </r>
       <r>   -4.3528    1.0000 </r>
       <r>   -4.2147    1.0000 </r>
       <r>   -3.4752    1.0000 </r>
       <r>   -2.5492    1.0000 </r>
       <r>   -2.4574    1.0000 </r>
       <r>   -2.1222    1.0000 </r>
       <r>   -1.9411    1.0000 </r>
       <r>   -1.3444    1.0000 </r>
       <r>   -1.0275    1.0000 </r>
       <r>   -0.8048    1.0000 </r>
       <r>   -0.5267    1.0000 </r>
       <r>   -0.0125    1.0000 </r>
       <r>    0.0903    1.0000 </r>
       <r>    0.3617    0.8524 </r>
       <r>    1.6359    0.0000 </r>
       <r>    2.1996    0.0000 </r>
       <r>    2.3005    0.0000 </r>
       <r>    2.4089    0.0000 </r>
       <r>    2.5691    0.0000 </r>
      </set>
      <set comment="kpoint 17">
       <r>  -12.3927    1.0000 </r>
       <r>  -11.5153    1.0000 </r>
       <r>  -10.7187    1.0000 </r>
       <r>  -10.4465    1.0000 </r>
       <r>   -5.1682    1.0000 </r>
       <r>   -4.4888    1.0000 </r>
       <r>   -4.2785    1.0000 </r>
       <r>   -3.5250    1.0000 </r>
       <r>   -2.4696    1.0000 </r>
       <r>   -2.1749    1.0000 </r>
       <r>   -2.0542    1.0000 </r>
       <r>   -1.7109    1.0000 </r>
       <r>   -1.3136    1.0000 </r>
       <r>   -0.9133    1.0000 </r>
       <r>   -0.7102    1.0000 </r>
       <r>   -0.3918    1.0000 </r>
       <r>   -0.0051    1.0000 </r>
       <r>    0.4434    0.1968 </r>
       <r>    0.5877    0.0009 </r>
       <r>    1.6665    0.0000 </r>
       <r>    2.1430    0.0000 </r>
       <r>    2.3657    0.0000 </r>
       <r>    2.4325    0.0000 </r>
       <r>    3.1159    0.0000 </r>
      </set>
      <set comment="kpoint 18">
       <r>  -12.4619    1.0000 </r>
       <r>  -11.5622    1.0000 </r>
       <r>  -10.7545    1.0000 </r>
       <r>  -10.4925    1.0000 </r>
       <r>   -5.2404    1.0000 </r>
       <r>   -4.5675    1.0000 </r>
       <r>   -4.3078    1.0000 </r>
       <r>   -3.5565    1.0000 </r>
       <r>   -2.4300    1.0000 </r>
       <r>   -2.0186    1.0000 </r>
       <r>   -1.9605    1.0000 </r>
       <r>   -1.6512    1.0000 </r>
       <r>   -1.3150    1.0000 </r>
       <r>   -0.9549    1.0000 </r>
       <r>   -0.6770    1.0000 </r>
       <r>   -0.2196    1.0000 </r>
       <r>   -0.0007    1.0000 </r>
       <r>    0.5953    0.0007 </r>
       <r>    0.9028    0.0000 </r>
       <r>    1.5206    0.0000 </r>
       <r>    2.0365    0.0000 </r>
       <r>    2.4248    0.0000 </r>
       <r>    2.6230    0.0000 </r>
       <r>    3.5258    0.0000 </r>
      </set>
      <set comment="kpoint 19">
       <r>  -12.4435    1.0000 </r>
       <r>  -11.5532    1.0000 </r>
       <r>  -10.7955    1.0000 </r>
       <r>  -10.5016    1.0000 </r>
       <r>   -5.2162    1.0000 </r>
       <r>   -4.5167    1.0000 </r>
       <r>   -4.2895    1.0000 </r>
       <r>   -3.5308    1.0000 </r>
       <r>   -2.4800    1.0000 </r>
       <r>   -2.0208    1.0000 </r>
       <r>   -1.9380    1.0000 </r>
       <r>   -1.6511    1.0000 </r>
       <r>   -1.3958    1.0000 </r>
       <r>   -0.8883    1.0000 </r>
       <r>   -0.7052    1.0000 </r>
       <r>   -0.2293    1.0000 </r>
       <r>    0.0026    1.0000 </r>
       <r>    0.5345    0.0072 </r>
       <r>    0.8871    0.0000 </r>
       <r>    1.5172    0.0000 </r>
       <r>    2.0034    0.0000 </r>
       <r>    2.4123    0.0000 </r>
       <r>    2.6560    0.0000 </r>
       <r>    3.4964    0.0000 </r>
      </set>
      <set comment="kpoint 20">
       <r>  -12.3746    1.0000 </r>
       <r>  -11.5065    1.0000 </r>
       <r>  -10.7579    1.0000 </r>
       <r>  -10.4566    1.0000 </r>
       <r>   -5.1427    1.0000 </r>
       <r>   -4.4376    1.0000 </r>
       <r>   -4.2642    1.0000 </r>
       <r>   -3.4982    1.0000 </r>
       <r>   -2.5206    1.0000 </r>
       <r>   -2.1880    1.0000 </r>
       <r>   -2.0296    1.0000 </r>
       <r>   -1.7031    1.0000 </r>
       <r>   -1.3660    1.0000 </r>
       <r>   -0.8919    1.0000 </r>
       <r>   -0.7353    1.0000 </r>
       <r>   -0.3792    1.0000 </r>
       <r>   -0.0209    1.0000 </r>
       <r>    0.3480    0.9076 </r>
       <r>    0.6606    0.0001 </r>
       <r>    1.6098    0.0000 </r>
       <r>    2.0854    0.0000 </r>
       <r>    2.4043    0.0000 </r>
       <r>    2.4532    0.0000 </r>
       <r>    3.1344    0.0000 </r>
      </set>
      <set comment="kpoint 21">
       <r>  -12.2385    1.0000 </r>
       <r>  -11.4151    1.0000 </r>
       <r>  -10.6863    1.0000 </r>
       <r>  -10.3710    1.0000 </r>
       <r>   -5.0016    1.0000 </r>
       <r>   -4.3024    1.0000 </r>
       <r>   -4.2079    1.0000 </r>
       <r>   -3.4488    1.0000 </r>
       <r>   -2.5977    1.0000 </r>
       <r>   -2.4497    1.0000 </r>
       <r>   -2.1514    1.0000 </r>
       <r>   -1.8972    1.0000 </r>
       <r>   -1.3821    1.0000 </r>
       <r>   -1.0476    1.0000 </r>
       <r>   -0.8135    1.0000 </r>
       <r>   -0.5129    1.0000 </r>
       <r>   -0.0533    1.0000 </r>
       <r>    0.0397    1.0000 </r>
       <r>    0.4378    0.2332 </r>
       <r>    1.5941    0.0000 </r>
       <r>    2.0989    0.0000 </r>
       <r>    2.3634    0.0000 </r>
       <r>    2.3968    0.0000 </r>
       <r>    2.6378    0.0000 </r>
      </set>
      <set comment="kpoint 22">
       <r>  -12.0391    1.0000 </r>
       <r>  -11.2837    1.0000 </r>
       <r>  -10.5886    1.0000 </r>
       <r>  -10.2544    1.0000 </r>
       <r>   -4.8077    1.0000 </r>
       <r>   -4.2382    1.0000 </r>
       <r>   -4.0309    1.0000 </r>
       <r>   -3.4145    1.0000 </r>
       <r>   -2.8376    1.0000 </r>
       <r>   -2.6313    1.0000 </r>
       <r>   -2.3958    1.0000 </r>
       <r>   -2.1324    1.0000 </r>
       <r>   -1.4390    1.0000 </r>
       <r>   -1.2989    1.0000 </r>
       <r>   -1.0012    1.0000 </r>
       <r>   -0.7334    1.0000 </r>
       <r>   -0.3256    1.0000 </r>
       <r>   -0.0349    1.0000 </r>
       <r>    0.4012    0.5562 </r>
       <r>    1.4584    0.0000 </r>
       <r>    2.0343    0.0000 </r>
       <r>    2.1622    0.0000 </r>
       <r>    2.4006    0.0000 </r>
       <r>    2.5359    0.0000 </r>
      </set>
      <set comment="kpoint 23">
       <r>  -11.7828    1.0000 </r>
       <r>  -11.1197    1.0000 </r>
       <r>  -10.4766    1.0000 </r>
       <r>  -10.1245    1.0000 </r>
       <r>   -4.5970    1.0000 </r>
       <r>   -4.2492    1.0000 </r>
       <r>   -3.7997    1.0000 </r>
       <r>   -3.4364    1.0000 </r>
       <r>   -3.2989    1.0000 </r>
       <r>   -2.6474    1.0000 </r>
       <r>   -2.5774    1.0000 </r>
       <r>   -2.3933    1.0000 </r>
       <r>   -1.8081    1.0000 </r>
       <r>   -1.4282    1.0000 </r>
       <r>   -1.2446    1.0000 </r>
       <r>   -0.9941    1.0000 </r>
       <r>   -0.5355    1.0000 </r>
       <r>   -0.0965    1.0000 </r>
       <r>    0.5313    0.0081 </r>
       <r>    1.3625    0.0000 </r>
       <r>    1.8178    0.0000 </r>
       <r>    2.1664    0.0000 </r>
       <r>    2.3631    0.0000 </r>
       <r>    2.6213    0.0000 </r>
      </set>
      <set comment="kpoint 24">
       <r>  -11.4800    1.0000 </r>
       <r>  -10.9345    1.0000 </r>
       <r>  -10.3668    1.0000 </r>
       <r>  -10.0093    1.0000 </r>
       <r>   -4.4817    1.0000 </r>
       <r>   -4.2750    1.0000 </r>
       <r>   -3.9481    1.0000 </r>
       <r>   -3.4815    1.0000 </r>
       <r>   -3.3334    1.0000 </r>
       <r>   -2.7910    1.0000 </r>
       <r>   -2.6922    1.0000 </r>
       <r>   -2.6098    1.0000 </r>
       <r>   -2.2564    1.0000 </r>
       <r>   -1.5158    1.0000 </r>
       <r>   -1.3538    1.0000 </r>
       <r>   -1.2243    1.0000 </r>
       <r>   -0.6957    1.0000 </r>
       <r>   -0.2260    1.0000 </r>
       <r>    0.7539    0.0000 </r>
       <r>    1.3408    0.0000 </r>
       <r>    1.7285    0.0000 </r>
       <r>    2.2197    0.0000 </r>
       <r>    2.3226    0.0000 </r>
       <r>    2.5824    0.0000 </r>
      </set>
      <set comment="kpoint 25">
       <r>  -11.1476    1.0000 </r>
       <r>  -10.7444    1.0000 </r>
       <r>  -10.2786    1.0000 </r>
       <r>   -9.9468    1.0000 </r>
       <r>   -4.5995    1.0000 </r>
       <r>   -4.3296    1.0000 </r>
       <r>   -4.1900    1.0000 </r>
       <r>   -3.4952    1.0000 </r>
       <r>   -3.3076    1.0000 </r>
       <r>   -2.9926    1.0000 </r>
       <r>   -2.8268    1.0000 </r>
       <r>   -2.7954    1.0000 </r>
       <r>   -2.1994    1.0000 </r>
       <r>   -1.6731    1.0000 </r>
       <r>   -1.3951    1.0000 </r>
       <r>   -1.3268    1.0000 </r>
       <r>   -0.8656    1.0000 </r>
       <r>   -0.4201    1.0000 </r>
       <r>    1.0133    0.0000 </r>
       <r>    1.3934    0.0000 </r>
       <r>    1.7580    0.0000 </r>
       <r>    2.0890    0.0000 </r>
       <r>    2.3156    0.0000 </r>
       <r>    2.5072    0.0000 </r>
      </set>
      <set comment="kpoint 26">
       <r>  -10.8142    1.0000 </r>
       <r>  -10.5733    1.0000 </r>
       <r>  -10.2278    1.0000 </r>
       <r>   -9.9739    1.0000 </r>
       <r>   -4.7539    1.0000 </r>
       <r>   -4.4106    1.0000 </r>
       <r>   -4.3298    1.0000 </r>
       <r>   -3.8719    1.0000 </r>
       <r>   -3.3616    1.0000 </r>
       <r>   -3.1119    1.0000 </r>
       <r>   -2.7599    1.0000 </r>
       <r>   -2.5877    1.0000 </r>
       <r>   -2.0666    1.0000 </r>
       <r>   -1.8595    1.0000 </r>
       <r>   -1.4144    1.0000 </r>
       <r>   -1.3057    1.0000 </r>
       <r>   -1.0282    1.0000 </r>
       <r>   -0.6678    1.0000 </r>
       <r>    1.2621    0.0000 </r>
       <r>    1.4817    0.0000 </r>
       <r>    1.8221    0.0000 </r>
       <r>    1.9297    0.0000 </r>
       <r>    2.2010    0.0000 </r>
       <r>    2.4910    0.0000 </r>
      </set>
      <set comment="kpoint 27">
       <r>  -10.5422    1.0000 </r>
       <r>  -10.4663    1.0000 </r>
       <r>  -10.1983    1.0000 </r>
       <r>  -10.0926    1.0000 </r>
       <r>   -4.7458    1.0000 </r>
       <r>   -4.5750    1.0000 </r>
       <r>   -4.3504    1.0000 </r>
       <r>   -4.1931    1.0000 </r>
       <r>   -3.3563    1.0000 </r>
       <r>   -3.2696    1.0000 </r>
       <r>   -2.4670    1.0000 </r>
       <r>   -2.3237    1.0000 </r>
       <r>   -2.1558    1.0000 </r>
       <r>   -2.0681    1.0000 </r>
       <r>   -1.3027    1.0000 </r>
       <r>   -1.2375    1.0000 </r>
       <r>   -1.1222    1.0000 </r>
       <r>   -0.9427    1.0000 </r>
       <r>    1.4439    0.0000 </r>
       <r>    1.5149    0.0000 </r>
       <r>    1.8302    0.0000 </r>
       <r>    1.8387    0.0000 </r>
       <r>    2.2355    0.0000 </r>
       <r>    2.3819    0.0000 </r>
      </set>
      <set comment="kpoint 28">
       <r>  -10.5422    1.0000 </r>
       <r>  -10.4663    1.0000 </r>
       <r>  -10.1983    1.0000 </r>
       <r>  -10.0926    1.0000 </r>
       <r>   -4.7458    1.0000 </r>
       <r>   -4.5750    1.0000 </r>
       <r>   -4.3504    1.0000 </r>
       <r>   -4.1931    1.0000 </r>
       <r>   -3.3563    1.0000 </r>
       <r>   -3.2696    1.0000 </r>
       <r>   -2.4670    1.0000 </r>
       <r>   -2.3237    1.0000 </r>
       <r>   -2.1558    1.0000 </r>
       <r>   -2.0681    1.0000 </r>
       <r>   -1.3027    1.0000 </r>
       <r>   -1.2375    1.0000 </r>
       <r>   -1.1222    1.0000 </r>
       <r>   -0.9427    1.0000 </r>
       <r>    1.4439    0.0000 </r>
       <r>    1.5149    0.0000 </r>
       <r>    1.8302    0.0000 </r>
       <r>    1.8387    0.0000 </r>
       <r>    2.2355    0.0000 </r>
       <r>    2.3819    0.0000 </r>
      </set>
      <set comment="kpoint 29">
       <r>  -10.8142    1.0000 </r>
       <r>  -10.5733    1.0000 </r>
       <r>  -10.2278    1.0000 </r>
       <r>   -9.9739    1.0000 </r>
       <r>   -4.7539    1.0000 </r>
       <r>   -4.4106    1.0000 </r>
       <r>   -4.3298    1.0000 </r>
       <r>   -3.8719    1.0000 </r>
       <r>   -3.3616    1.0000 </r>
       <r>   -3.1119    1.0000 </r>
       <r>   -2.7599    1.0000 </r>
       <r>   -2.5877    1.0000 </r>
       <r>   -2.0666    1.0000 </r>
       <r>   -1.8595    1.0000 </r>
       <r>   -1.4144    1.0000 </r>
       <r>   -1.3057    1.0000 </r>
       <r>   -1.0282    1.0000 </r>
       <r>   -0.6678    1.0000 </r>
       <r>    1.2621    0.0000 </r>
       <r>    1.4817    0.0000 </r>
       <r>    1.8221    0.0000 </r>
       <r>    1.9297    0.0000 </r>
       <r>    2.2010    0.0000 </r>
       <r>    2.4910    0.0000 </r>
      </set>
      <set comment="kpoint 30">
       <r>  -11.1476    1.0000 </r>
       <r>  -10.7444    1.0000 </r>
       <r>  -10.2786    1.0000 </r>
       <r>   -9.9468    1.0000 </r>
       <r>   -4.5995    1.0000 </r>
       <r>   -4.3296    1.0000 </r>
       <r>   -4.1900    1.0000 </r>
       <r>   -3.4952    1.0000 </r>
       <r>   -3.3076    1.0000 </r>
       <r>   -2.9926    1.0000 </r>
       <r>   -2.8268    1.0000 </r>
       <r>   -2.7954    1.0000 </r>
       <r>   -2.1994    1.0000 </r>
       <r>   -1.6731    1.0000 </r>
       <r>   -1.3951    1.0000 </r>
       <r>   -1.3268    1.0000 </r>
       <r>   -0.8656    1.0000 </r>
       <r>   -0.4201    1.0000 </r>
       <r>    1.0133    0.0000 </r>
       <r>    1.3934    0.0000 </r>
       <r>    1.7580    0.0000 </r>
       <r>    2.0890    0.0000 </r>
       <r>    2.3156    0.0000 </r>
       <r>    2.5072    0.0000 </r>
      </set>
      <set comment="kpoint 31">
       <r>  -11.4800    1.0000 </r>
       <r>  -10.9345    1.0000 </r>
       <r>  -10.3668    1.0000 </r>
       <r>  -10.0093    1.0000 </r>
       <r>   -4.4817    1.0000 </r>
       <r>   -4.2750    1.0000 </r>
       <r>   -3.9481    1.0000 </r>
       <r>   -3.4815    1.0000 </r>
       <r>   -3.3334    1.0000 </r>
       <r>   -2.7910    1.0000 </r>
       <r>   -2.6922    1.0000 </r>
       <r>   -2.6098    1.0000 </r>
       <r>   -2.2564    1.0000 </r>
       <r>   -1.5158    1.0000 </r>
       <r>   -1.3538    1.0000 </r>
       <r>   -1.2243    1.0000 </r>
       <r>   -0.6957    1.0000 </r>
       <r>   -0.2260    1.0000 </r>
       <r>    0.7539    0.0000 </r>
       <r>    1.3408    0.0000 </r>
       <r>    1.7285    0.0000 </r>
       <r>    2.2197    0.0000 </r>
       <r>    2.3226    0.0000 </r>
       <r>    2.5824    0.0000 </r>
      </set>
      <set comment="kpoint 32">
       <r>  -11.7828    1.0000 </r>
       <r>  -11.1197    1.0000 </r>
       <r>  -10.4766    1.0000 </r>
       <r>  -10.1245    1.0000 </r>
       <r>   -4.5970    1.0000 </r>
       <r>   -4.2492    1.0000 </r>
       <r>   -3.7997    1.0000 </r>
       <r>   -3.4364    1.0000 </r>
       <r>   -3.2989    1.0000 </r>
       <r>   -2.6474    1.0000 </r>
       <r>   -2.5774    1.0000 </r>
       <r>   -2.3933    1.0000 </r>
       <r>   -1.8081    1.0000 </r>
       <r>   -1.4282    1.0000 </r>
       <r>   -1.2446    1.0000 </r>
       <r>   -0.9941    1.0000 </r>
       <r>   -0.5355    1.0000 </r>
       <r>   -0.0965    1.0000 </r>
       <r>    0.5313    0.0081 </r>
       <r>    1.3625    0.0000 </r>
       <r>    1.8178    0.0000 </r>
       <r>    2.1664    0.0000 </r>
       <r>    2.3631    0.0000 </r>
       <r>    2.6213    0.0000 </r>
      </set>
      <set comment="kpoint 33">
       <r>  -12.0391    1.0000 </r>
       <r>  -11.2837    1.0000 </r>
       <r>  -10.5886    1.0000 </r>
       <r>  -10.2544    1.0000 </r>
       <r>   -4.8077    1.0000 </r>
       <r>   -4.2382    1.0000 </r>
       <r>   -4.0309    1.0000 </r>
       <r>   -3.4145    1.0000 </r>
       <r>   -2.8376    1.0000 </r>
       <r>   -2.6313    1.0000 </r>
       <r>   -2.3958    1.0000 </r>
       <r>   -2.1324    1.0000 </r>
       <r>   -1.4390    1.0000 </r>
       <r>   -1.2989    1.0000 </r>
       <r>   -1.0012    1.0000 </r>
       <r>   -0.7334    1.0000 </r>
       <r>   -0.3256    1.0000 </r>
       <r>   -0.0349    1.0000 </r>
       <r>    0.4012    0.5562 </r>
       <r>    1.4584    0.0000 </r>
       <r>    2.0343    0.0000 </r>
       <r>    2.1622    0.0000 </r>
       <r>    2.4006    0.0000 </r>
       <r>    2.5359    0.0000 </r>
      </set>
      <set comment="kpoint 34">
       <r>  -12.2385    1.0000 </r>
       <r>  -11.4151    1.0000 </r>
       <r>  -10.6863    1.0000 </r>
       <r>  -10.3710    1.0000 </r>
       <r>   -5.0016    1.0000 </r>
       <r>   -4.3024    1.0000 </r>
       <r>   -4.2079    1.0000 </r>
       <r>   -3.4488    1.0000 </r>
       <r>   -2.5977    1.0000 </r>
       <r>   -2.4497    1.0000 </r>
       <r>   -2.1514    1.0000 </r>
       <r>   -1.8972    1.0000 </r>
       <r>   -1.3821    1.0000 </r>
       <r>   -1.0476    1.0000 </r>
       <r>   -0.8135    1.0000 </r>
       <r>   -0.5129    1.0000 </r>
       <r>   -0.0533    1.0000 </r>
       <r>    0.0397    1.0000 </r>
       <r>    0.4378    0.2332 </r>
       <r>    1.5941    0.0000 </r>
       <r>    2.0989    0.0000 </r>
       <r>    2.3634    0.0000 </r>
       <r>    2.3968    0.0000 </r>
       <r>    2.6378    0.0000 </r>
      </set>
      <set comment="kpoint 35">
       <r>  -12.3746    1.0000 </r>
       <r>  -11.5065    1.0000 </r>
       <r>  -10.7579    1.0000 </r>
       <r>  -10.4566    1.0000 </r>
       <r>   -5.1427    1.0000 </r>
       <r>   -4.4376    1.0000 </r>
       <r>   -4.2642    1.0000 </r>
       <r>   -3.4982    1.0000 </r>
       <r>   -2.5206    1.0000 </r>
       <r>   -2.1880    1.0000 </r>
       <r>   -2.0296    1.0000 </r>
       <r>   -1.7031    1.0000 </r>
       <r>   -1.3660    1.0000 </r>
       <r>   -0.8919    1.0000 </r>
       <r>   -0.7353    1.0000 </r>
       <r>   -0.3792    1.0000 </r>
       <r>   -0.0209    1.0000 </r>
       <r>    0.3480    0.9076 </r>
       <r>    0.6606    0.0001 </r>
       <r>    1.6098    0.0000 </r>
       <r>    2.0854    0.0000 </r>
       <r>    2.4043    0.0000 </r>
       <r>    2.4532    0.0000 </r>
       <r>    3.1344    0.0000 </r>
      </set>
      <set comment="kpoint 36">
       <r>  -12.4435    1.0000 </r>
       <r>  -11.5532    1.0000 </r>
       <r>  -10.7955    1.0000 </r>
       <r>  -10.5016    1.0000 </r>
       <r>   -5.2162    1.0000 </r>
       <r>   -4.5167    1.0000 </r>
       <r>   -4.2895    1.0000 </r>
       <r>   -3.5308    1.0000 </r>
       <r>   -2.4800    1.0000 </r>
       <r>   -2.0208    1.0000 </r>
       <r>   -1.9380    1.0000 </r>
       <r>   -1.6511    1.0000 </r>
       <r>   -1.3958    1.0000 </r>
       <r>   -0.8883    1.0000 </r>
       <r>   -0.7052    1.0000 </r>
       <r>   -0.2293    1.0000 </r>
       <r>    0.0026    1.0000 </r>
       <r>    0.5345    0.0072 </r>
       <r>    0.8871    0.0000 </r>
       <r>    1.5172    0.0000 </r>
       <r>    2.0034    0.0000 </r>
       <r>    2.4123    0.0000 </r>
       <r>    2.6560    0.0000 </r>
       <r>    3.4964    0.0000 </r>
      </set>
      <set comment="kpoint 37">
       <r>  -12.4071    1.0000 </r>
       <r>  -11.5361    1.0000 </r>
       <r>  -10.8710    1.0000 </r>
       <r>  -10.5223    1.0000 </r>
       <r>   -5.1679    1.0000 </r>
       <r>   -4.4349    1.0000 </r>
       <r>   -4.2376    1.0000 </r>
       <r>   -3.4892    1.0000 </r>
       <r>   -2.5678    1.0000 </r>
       <r>   -2.0182    1.0000 </r>
       <r>   -1.9014    1.0000 </r>
       <r>   -1.6530    1.0000 </r>
       <r>   -1.4950    1.0000 </r>
       <r>   -0.8251    1.0000 </r>
[...]
       <r>    2.6744    0.0000 </r>
      </set>
      <set comment="kpoint 159">
       <r>  -11.5111    1.0000 </r>
       <r>  -11.3549    1.0000 </r>
       <r>  -11.0674    1.0000 </r>
       <r>  -10.5105    1.0000 </r>
       <r>   -4.0415    1.0000 </r>
       <r>   -3.9656    1.0000 </r>
       <r>   -3.6972    1.0000 </r>
       <r>   -3.3836    1.0000 </r>
       <r>   -3.1788    1.0000 </r>
       <r>   -2.7416    1.0000 </r>
       <r>   -2.4437    1.0000 </r>
       <r>   -2.1855    1.0000 </r>
       <r>   -1.3953    1.0000 </r>
       <r>   -1.3025    1.0000 </r>
       <r>   -1.0555    1.0000 </r>
       <r>   -0.9514    1.0000 </r>
       <r>   -0.6782    1.0000 </r>
       <r>   -0.2248    1.0000 </r>
       <r>    0.7205    0.0000 </r>
       <r>    0.9843    0.0000 </r>
       <r>    1.8508    0.0000 </r>
       <r>    1.9156    0.0000 </r>
       <r>    2.4392    0.0000 </r>
       <r>    2.6974    0.0000 </r>
      </set>
      <set comment="kpoint 160">
       <r>  -11.6915    1.0000 </r>
       <r>  -11.5163    1.0000 </r>
       <r>  -11.1788    1.0000 </r>
       <r>  -10.6314    1.0000 </r>
       <r>   -4.2559    1.0000 </r>
       <r>   -4.0745    1.0000 </r>
       <r>   -3.8689    1.0000 </r>
       <r>   -3.0476    1.0000 </r>
       <r>   -2.8509    1.0000 </r>
       <r>   -2.6652    1.0000 </r>
       <r>   -2.2988    1.0000 </r>
       <r>   -1.7606    1.0000 </r>
       <r>   -1.3522    1.0000 </r>
       <r>   -1.1905    1.0000 </r>
       <r>   -0.9796    1.0000 </r>
       <r>   -0.9129    1.0000 </r>
       <r>   -0.5405    1.0000 </r>
       <r>   -0.2147    1.0000 </r>
       <r>    0.8065    0.0000 </r>
       <r>    0.8719    0.0000 </r>
       <r>    1.8264    0.0000 </r>
       <r>    1.9959    0.0000 </r>
       <r>    2.6666    0.0000 </r>
       <r>    2.8783    0.0000 </r>
      </set>
      <set comment="kpoint 161">
       <r>  -11.8157    1.0000 </r>
       <r>  -11.6294    1.0000 </r>
       <r>  -11.2572    1.0000 </r>
       <r>  -10.7173    1.0000 </r>
       <r>   -4.4171    1.0000 </r>
       <r>   -4.1737    1.0000 </r>
       <r>   -3.9862    1.0000 </r>
       <r>   -2.9584    1.0000 </r>
       <r>   -2.7388    1.0000 </r>
       <r>   -2.3216    1.0000 </r>
       <r>   -2.1015    1.0000 </r>
       <r>   -1.5485    1.0000 </r>
       <r>   -1.4768    1.0000 </r>
       <r>   -1.1329    1.0000 </r>
       <r>   -0.9450    1.0000 </r>
       <r>   -0.6923    1.0000 </r>
       <r>   -0.4140    1.0000 </r>
       <r>   -0.2896    1.0000 </r>
       <r>    0.6395    0.0001 </r>
       <r>    1.1582    0.0000 </r>
       <r>    1.7932    0.0000 </r>
       <r>    2.1015    0.0000 </r>
       <r>    2.9501    0.0000 </r>
       <r>    3.1906    0.0000 </r>
      </set>
      <set comment="kpoint 162">
       <r>  -11.8789    1.0000 </r>
       <r>  -11.6876    1.0000 </r>
       <r>  -11.2976    1.0000 </r>
       <r>  -10.7617    1.0000 </r>
       <r>   -4.5015    1.0000 </r>
       <r>   -4.2304    1.0000 </r>
       <r>   -4.0455    1.0000 </r>
       <r>   -3.0064    1.0000 </r>
       <r>   -2.6073    1.0000 </r>
       <r>   -1.9926    1.0000 </r>
       <r>   -1.9244    1.0000 </r>
       <r>   -1.6854    1.0000 </r>
       <r>   -1.6047    1.0000 </r>
       <r>   -1.0388    1.0000 </r>
       <r>   -0.9736    1.0000 </r>
       <r>   -0.5080    1.0000 </r>
       <r>   -0.3912    1.0000 </r>
       <r>   -0.2403    1.0000 </r>
       <r>    0.4520    0.1495 </r>
       <r>    1.4873    0.0000 </r>
       <r>    1.7631    0.0000 </r>
       <r>    2.1436    0.0000 </r>
       <r>    3.1632    0.0000 </r>
       <r>    3.1960    0.0000 </r>
      </set>
     </set>
    </set>
   </array>
  </eigenvalues>
  <separator name="orbital magnetization" >
   <v name="MAGDIPOLOUT">      0.00000000      0.00000000      0.00000000</v>
  </separator>
  <dos>
   <i name="efermi">      0.40703678 </i>
   <total>
    <array>
     <dimension dim="1">gridpoints</dimension>
     <dimension dim="2">spin</dimension>
     <field>energy</field>
     <field>total</field>
     <field>integrated</field>
     <set>
      <set comment="spin 1">
       <r>   -13.2613     0.0000     0.0000 </r>
       <r>   -13.2026     0.0000     0.0000 </r>
       <r>   -13.1440     0.0000     0.0000 </r>
       <r>   -13.0854     0.0000     0.0000 </r>
       <r>   -13.0268     0.0000     0.0000 </r>
       <r>   -12.9681     0.0000     0.0000 </r>
       <r>   -12.9095     0.0000     0.0000 </r>
       <r>   -12.8509     0.0000     0.0000 </r>
       <r>   -12.7923     0.0000     0.0000 </r>
       <r>   -12.7337     0.0000     0.0000 </r>
       <r>   -12.6750     0.0002     0.0000 </r>
       <r>   -12.6164     0.0017     0.0001 </r>
       <r>   -12.5578     0.0158     0.0010 </r>
       <r>   -12.4992     0.1311     0.0087 </r>
       <r>   -12.4405     0.5695     0.0421 </r>
       <r>   -12.3819     1.0055     0.1010 </r>
       <r>   -12.3233     1.0814     0.1644 </r>
       <r>   -12.2647     1.0788     0.2277 </r>
       <r>   -12.2061     1.2497     0.3010 </r>
       <r>   -12.1474     1.0841     0.3646 </r>
       <r>   -12.0888     1.0452     0.4259 </r>
       <r>   -12.0302     1.2976     0.5021 </r>
       <r>   -11.9716     1.3520     0.5814 </r>
       <r>   -11.9130     1.1342     0.6480 </r>
       <r>   -11.8543     1.1158     0.7135 </r>
       <r>   -11.7957     1.2587     0.7874 </r>
       <r>   -11.7371     1.3296     0.8654 </r>
       <r>   -11.6785     1.2898     0.9412 </r>
       <r>   -11.6198     1.2860     1.0166 </r>
       <r>   -11.5612     1.7980     1.1221 </r>
       <r>   -11.5026     3.1990     1.3097 </r>
       <r>   -11.4440     3.8194     1.5336 </r>
       <r>   -11.3854     3.2550     1.7245 </r>
       <r>   -11.3267     2.8259     1.8903 </r>
       <r>   -11.2681     3.2859     2.0834 </r>
       <r>   -11.2095     3.2895     2.2765 </r>
       <r>   -11.1509     3.3362     2.4722 </r>
       <r>   -11.0923     3.4724     2.6759 </r>
       <r>   -11.0336     3.4901     2.8808 </r>
       <r>   -10.9750     2.7492     3.0423 </r>
       <r>   -10.9164     3.1761     3.2287 </r>
       <r>   -10.8578     3.3843     3.4275 </r>
       <r>   -10.7991     3.9834     3.6612 </r>
       <r>   -10.7405     4.9635     3.9522 </r>
       <r>   -10.6819     5.3956     4.2687 </r>
       <r>   -10.6233     5.3138     4.5806 </r>
       <r>   -10.5647     6.1551     4.9417 </r>
       <r>   -10.5060     8.1449     5.4198 </r>
       <r>   -10.4474     7.4808     5.8585 </r>
       <r>   -10.3888     4.9795     6.1509 </r>
       <r>   -10.3302     4.1188     6.3931 </r>
       <r>   -10.2716     3.5553     6.6021 </r>
       <r>   -10.2129     4.0148     6.8377 </r>
       <r>   -10.1543     4.1890     7.0836 </r>
       <r>   -10.0957     3.4507     7.2862 </r>
       <r>   -10.0371     4.2926     7.5381 </r>
       <r>    -9.9784     4.4775     7.8010 </r>
       <r>    -9.9198     2.6757     7.9580 </r>
       <r>    -9.8612     0.6235     7.9949 </r>
       <r>    -9.8026     0.0738     7.9995 </r>
       <r>    -9.7440     0.0033     8.0000 </r>
       <r>    -9.6853     0.0000     8.0000 </r>
       <r>    -9.6267     0.0000     8.0000 </r>
       <r>    -9.5681     0.0000     8.0000 </r>
       <r>    -9.5095     0.0000     8.0000 </r>
       <r>    -9.4509     0.0000     8.0000 </r>
       <r>    -9.3922     0.0000     8.0000 </r>
       <r>    -9.3336     0.0000     8.0000 </r>
       <r>    -9.2750     0.0000     8.0000 </r>
       <r>    -9.2164     0.0000     8.0000 </r>
       <r>    -9.1577     0.0000     8.0000 </r>
       <r>    -9.0991     0.0000     8.0000 </r>
       <r>    -9.0405     0.0000     8.0000 </r>
       <r>    -8.9819     0.0000     8.0000 </r>
       <r>    -8.9233     0.0000     8.0000 </r>
       <r>    -8.8646     0.0000     8.0000 </r>
       <r>    -8.8060     0.0000     8.0000 </r>
       <r>    -8.7474     0.0000     8.0000 </r>
       <r>    -8.6888     0.0000     8.0000 </r>
       <r>    -8.6302     0.0000     8.0000 </r>
       <r>    -8.5715     0.0000     8.0000 </r>
       <r>    -8.5129     0.0000     8.0000 </r>
       <r>    -8.4543     0.0000     8.0000 </r>
       <r>    -8.3957     0.0000     8.0000 </r>
       <r>    -8.3370     0.0000     8.0000 </r>
       <r>    -8.2784     0.0000     8.0000 </r>
       <r>    -8.2198     0.0000     8.0000 </r>
       <r>    -8.1612     0.0000     8.0000 </r>
       <r>    -8.1026     0.0000     8.0000 </r>
       <r>    -8.0439     0.0000     8.0000 </r>
       <r>    -7.9853     0.0000     8.0000 </r>
       <r>    -7.9267     0.0000     8.0000 </r>
       <r>    -7.8681     0.0000     8.0000 </r>
       <r>    -7.8095     0.0000     8.0000 </r>
       <r>    -7.7508     0.0000     8.0000 </r>
       <r>    -7.6922     0.0000     8.0000 </r>
       <r>    -7.6336     0.0000     8.0000 </r>
       <r>    -7.5750     0.0000     8.0000 </r>
       <r>    -7.5163     0.0000     8.0000 </r>
       <r>    -7.4577     0.0000     8.0000 </r>
       <r>    -7.3991     0.0000     8.0000 </r>
       <r>    -7.3405     0.0000     8.0000 </r>
       <r>    -7.2819     0.0000     8.0000 </r>
       <r>    -7.2232     0.0000     8.0000 </r>
       <r>    -7.1646     0.0000     8.0000 </r>
       <r>    -7.1060     0.0000     8.0000 </r>
       <r>    -7.0474     0.0000     8.0000 </r>
       <r>    -6.9887     0.0000     8.0000 </r>
       <r>    -6.9301     0.0000     8.0000 </r>
       <r>    -6.8715     0.0000     8.0000 </r>
       <r>    -6.8129     0.0000     8.0000 </r>
       <r>    -6.7543     0.0000     8.0000 </r>
       <r>    -6.6956     0.0000     8.0000 </r>
       <r>    -6.6370     0.0000     8.0000 </r>
       <r>    -6.5784     0.0000     8.0000 </r>
       <r>    -6.5198     0.0000     8.0000 </r>
       <r>    -6.4612     0.0000     8.0000 </r>
       <r>    -6.4025     0.0000     8.0000 </r>
       <r>    -6.3439     0.0000     8.0000 </r>
       <r>    -6.2853     0.0000     8.0000 </r>
       <r>    -6.2267     0.0000     8.0000 </r>
       <r>    -6.1680     0.0000     8.0000 </r>
       <r>    -6.1094     0.0000     8.0000 </r>
       <r>    -6.0508     0.0000     8.0000 </r>
       <r>    -5.9922     0.0000     8.0000 </r>
       <r>    -5.9336     0.0000     8.0000 </r>
       <r>    -5.8749     0.0000     8.0000 </r>
       <r>    -5.8163     0.0000     8.0000 </r>
       <r>    -5.7577     0.0000     8.0000 </r>
       <r>    -5.6991     0.0000     8.0000 </r>
       <r>    -5.6405     0.0000     8.0000 </r>
       <r>    -5.5818     0.0002     8.0000 </r>
       <r>    -5.5232     0.0022     8.0001 </r>
       <r>    -5.4646     0.0211     8.0014 </r>
       <r>    -5.4060     0.1599     8.0108 </r>
       <r>    -5.3473     0.5231     8.0414 </r>
       <r>    -5.2887     0.8559     8.0916 </r>
       <r>    -5.2301     1.7160     8.1922 </r>
       <r>    -5.1715     2.0641     8.3133 </r>
       <r>    -5.1129     1.8592     8.4223 </r>
       <r>    -5.0542     1.6177     8.5172 </r>
       <r>    -4.9956     1.8175     8.6239 </r>
       <r>    -4.9370     2.2076     8.7535 </r>
       <r>    -4.8784     2.8447     8.9204 </r>
       <r>    -4.8198     2.5676     9.0710 </r>
       <r>    -4.7611     2.2716     9.2043 </r>
       <r>    -4.7025     2.0591     9.3252 </r>
       <r>    -4.6439     2.1666     9.4524 </r>
       <r>    -4.5853     2.7110     9.6116 </r>
       <r>    -4.5266     3.6275     9.8244 </r>
       <r>    -4.4680     4.6063    10.0946 </r>
       <r>    -4.4094     5.7894    10.4341 </r>
       <r>    -4.3508     7.3680    10.8663 </r>
       <r>    -4.2922     7.8363    11.3259 </r>
       <r>    -4.2335     8.2752    11.8114 </r>
       <r>    -4.1749     7.7641    12.2672 </r>
       <r>    -4.1163     5.7233    12.6033 </r>
       <r>    -4.0577     5.3041    12.9148 </r>
       <r>    -3.9991     5.0916    13.2139 </r>
       <r>    -3.9404     4.5121    13.4789 </r>
       <r>    -3.8818     4.0867    13.7187 </r>
       <r>    -3.8232     3.5323    13.9264 </r>
       <r>    -3.7646     3.7657    14.1474 </r>
       <r>    -3.7059     3.9614    14.3800 </r>
       <r>    -3.6473     2.9709    14.5545 </r>
       <r>    -3.5887     2.6501    14.7101 </r>
       <r>    -3.5301     3.4566    14.9131 </r>
       <r>    -3.4715     4.9026    15.2008 </r>
       <r>    -3.4128     6.2075    15.5647 </r>
       <r>    -3.3542     6.9717    15.9737 </r>
       <r>    -3.2956     6.1371    16.3337 </r>
       <r>    -3.2370     4.2295    16.5821 </r>
       <r>    -3.1784     3.6116    16.7943 </r>
       <r>    -3.1197     3.1854    16.9817 </r>
       <r>    -3.0611     3.4124    17.1820 </r>
       <r>    -3.0025     5.0436    17.4780 </r>
       <r>    -2.9439     6.3031    17.8477 </r>
       <r>    -2.8852     5.1195    18.1481 </r>
       <r>    -2.8266     4.8366    18.4320 </r>
       <r>    -2.7680     5.9369    18.7806 </r>
       <r>    -2.7094     6.4794    19.1609 </r>
       <r>    -2.6508     7.4382    19.5971 </r>
       <r>    -2.5921     7.7335    20.0509 </r>
       <r>    -2.5335     6.1233    20.4103 </r>
       <r>    -2.4749     6.8352    20.8115 </r>
       <r>    -2.4163     7.5848    21.2568 </r>
       <r>    -2.3577     5.2616    21.5657 </r>
       <r>    -2.2990     4.3744    21.8224 </r>
       <r>    -2.2404     4.6088    22.0934 </r>
       <r>    -2.1818     5.4893    22.4156 </r>
       <r>    -2.1232     5.2241    22.7221 </r>
       <r>    -2.0645     4.9420    23.0120 </r>
       <r>    -2.0059     5.3357    23.3253 </r>
       <r>    -1.9473     5.4689    23.6463 </r>
       <r>    -1.8887     5.1480    23.9485 </r>
       <r>    -1.8301     5.2950    24.2591 </r>
       <r>    -1.7714     6.2635    24.6269 </r>
       <r>    -1.7128     6.5153    25.0093 </r>
       <r>    -1.6542     7.1938    25.4313 </r>
       <r>    -1.5956     6.5207    25.8139 </r>
       <r>    -1.5369     5.3915    26.1305 </r>
       <r>    -1.4783     5.3666    26.4457 </r>
       <r>    -1.4197     8.0230    26.9167 </r>
       <r>    -1.3611    10.9714    27.5602 </r>
       <r>    -1.3025    10.0257    28.1483 </r>
       <r>    -1.2438     6.9534    28.5562 </r>
       <r>    -1.1852     4.8710    28.8429 </r>
       <r>    -1.1266     4.2997    29.0959 </r>
       <r>    -1.0680     5.9257    29.4438 </r>
       <r>    -1.0094     7.2629    29.8701 </r>
       <r>    -0.9507     8.6602    30.3780 </r>
       <r>    -0.8921     9.6367    30.9434 </r>
       <r>    -0.8335     7.8876    31.4064 </r>
       <r>    -0.7749     6.6532    31.7970 </r>
       <r>    -0.7162     7.0693    32.2122 </r>
       <r>    -0.6576     6.7440    32.6083 </r>
       <r>    -0.5990     5.1037    32.9079 </r>
       <r>    -0.5404     5.8052    33.2488 </r>
       <r>    -0.4818     6.0654    33.6049 </r>
       <r>    -0.4231     4.0047    33.8401 </r>
       <r>    -0.3645     5.0667    34.1374 </r>
       <r>    -0.3059     4.7242    34.4151 </r>
       <r>    -0.2473     3.8994    34.6439 </r>
       <r>    -0.1887     4.4293    34.9038 </r>
       <r>    -0.1300     3.8650    35.1307 </r>
       <r>    -0.0714     3.4439    35.3329 </r>
       <r>    -0.0128     3.5428    35.5409 </r>
       <r>     0.0458     2.5392    35.6901 </r>
       <r>     0.1045     1.2471    35.7634 </r>
       <r>     0.1631     0.6432    35.8014 </r>
       <r>     0.2217     0.4940    35.8306 </r>
       <r>     0.2803     0.4501    35.8571 </r>
       <r>     0.3389     0.7397    35.9005 </r>
       <r>     0.3976     1.1460    35.9678 </r>
       <r>     0.4562     1.5021    36.0559 </r>
       <r>     0.5148     1.7844    36.1605 </r>
       <r>     0.5734     1.9586    36.2755 </r>
       <r>     0.6320     2.3298    36.4121 </r>
       <r>     0.6907     3.2171    36.6008 </r>
       <r>     0.7493     4.3608    36.8567 </r>
       <r>     0.8079     3.5218    37.0634 </r>
       <r>     0.8665     2.2504    37.1954 </r>
       <r>     0.9252     2.1409    37.3212 </r>
       <r>     0.9838     1.6070    37.4157 </r>
       <r>     1.0424     2.1820    37.5437 </r>
       <r>     1.1010     2.3138    37.6797 </r>
       <r>     1.1596     1.9353    37.7932 </r>
       <r>     1.2183     2.5258    37.9413 </r>
       <r>     1.2769     3.8769    38.1688 </r>
       <r>     1.3355     4.2035    38.4153 </r>
       <r>     1.3941     5.3644    38.7299 </r>
       <r>     1.4527     6.7155    39.1238 </r>
       <r>     1.5114     7.6109    39.5703 </r>
       <r>     1.5700     4.8493    39.8549 </r>
       <r>     1.6286     1.6287    39.9508 </r>
       <r>     1.6872     1.3423    40.0300 </r>
       <r>     1.7459     3.5845    40.2408 </r>
       <r>     1.8045     7.3146    40.6696 </r>
       <r>     1.8631     7.7765    41.1255 </r>
       <r>     1.9217     6.5076    41.5070 </r>
       <r>     1.9803     6.0105    41.8602 </r>
       <r>     2.0390     6.2974    42.2299 </r>
       <r>     2.0976     7.9521    42.6966 </r>
       <r>     2.1562     7.4556    43.1340 </r>
       <r>     2.2148     5.9698    43.4843 </r>
       <r>     2.2734     5.2121    43.7903 </r>
       <r>     2.3321     5.2402    44.0981 </r>
       <r>     2.3907     7.3755    44.5308 </r>
       <r>     2.4493     9.2646    45.0743 </r>
       <r>     2.5079     9.1696    45.6122 </r>
       <r>     2.5666     6.0164    45.9651 </r>
       <r>     2.6252     4.4560    46.2271 </r>
       <r>     2.6838     5.2786    46.5373 </r>
       <r>     2.7424     4.6821    46.8123 </r>
       <r>     2.8010     3.6707    47.0277 </r>
       <r>     2.8597     3.0629    47.2077 </r>
       <r>     2.9183     2.6829    47.3653 </r>
       <r>     2.9769     1.5054    47.4539 </r>
       <r>     3.0355     0.6056    47.4896 </r>
       <r>     3.0942     0.6177    47.5260 </r>
       <r>     3.1528     1.2869    47.6016 </r>
       <r>     3.2114     2.0003    47.7189 </r>
       <r>     3.2700     1.5409    47.8093 </r>
       <r>     3.3286     0.6376    47.8468 </r>
       <r>     3.3873     0.5534    47.8793 </r>
       <r>     3.4459     0.7579    47.9239 </r>
       <r>     3.5045     0.7282    47.9666 </r>
       <r>     3.5631     0.4475    47.9929 </r>
       <r>     3.6217     0.1057    47.9992 </r>
       <r>     3.6804     0.0119    47.9999 </r>
       <r>     3.7390     0.0000    48.0000 </r>
       <r>     3.7976     0.0000    48.0000 </r>
       <r>     3.8562     0.0000    48.0000 </r>
       <r>     3.9149     0.0000    48.0000 </r>
       <r>     3.9735     0.0000    48.0000 </r>
       <r>     4.0321     0.0000    48.0000 </r>
       <r>     4.0907     0.0000    48.0000 </r>
       <r>     4.1493     0.0000    48.0000 </r>
       <r>     4.2080     0.0000    48.0000 </r>
       <r>     4.2666     0.0000    48.0000 </r>
       <r>     4.3252     0.0000    48.0000 </r>
      </set>
     </set>
    </array>
   </total>
  </dos>
 </calculation>
 <structure name="finalpos" >
  <crystal>
   <varray name="basis" >
    <v>       3.45200000       0.00000000       0.00000000 </v>
    <v>       0.00000000       6.36800000       0.00000000 </v>
    <v>       0.00000000       0.00000000      16.00000000 </v>
   </varray>
   <i name="volume">    351.71737600 </i>
   <varray name="rec_basis" >
    <v>       0.28968714       0.00000000       0.00000000 </v>
    <v>       0.00000000       0.15703518       0.00000000 </v>
    <v>       0.00000000       0.00000000       0.06250000 </v>
   </varray>
  </crystal>
  <varray name="positions" >
   <v>       0.50000000       0.10158513       0.12915807 </v>
   <v>       0.50000000       0.74914937       0.90757197 </v>
   <v>       0.00000000       0.25745600       0.87084183 </v>
   <v>      -0.00000000       0.60988815       0.09242882 </v>
   <v>       0.50000000       0.36060446       0.99403526 </v>
   <v>      -0.00000000       0.99843372       0.00596406 </v>
  </varray>
 </structure>
</modeling>
