2D MoTe2 in a box                       
           1
     3.452000    0.000000    0.000000
     0.000000    6.368000    0.000000
     0.000000    0.000000   16.000000
   Te   Mo
   4   2
Direct configuration=     1
   0.50000000  0.10163317  0.12913313
   0.50000000  0.74915672  0.90758437
   0.00000000  0.25741049  0.87086563
   0.00000000  0.60988065  0.09241625
   0.50000000  0.36059673  0.99406750
   0.00000000  0.99843907  0.00593312
Direct configuration=     2
   0.50000000  0.10158979  0.12915565
   0.50000000  0.74915008  0.90757317
   0.00000000  0.25745159  0.87084413
  -0.00000000  0.60988743  0.09242760
   0.50000000  0.36060371  0.99403839
  -0.00000000  0.99843424  0.00596106
Direct configuration=     3
   0.50000000  0.10158513  0.12915807
   0.50000000  0.74914937  0.90757197
   0.00000000  0.25745600  0.87084183
  -0.00000000  0.60988815  0.09242882
   0.50000000  0.36060446  0.99403526
  -0.00000000  0.99843372  0.00596406
