   6   6   0   0
  0.5861956E+02  0.3452000E-09  0.6368000E-09  0.1600000E-08  0.5000000E-15
  1.000000000000000E-004
  CAR 
 2D MoTe2 in a box                       
      4.32569240    -13.26161421  301      0.39802197      1.00000000
    -13.262  0.0000E+00  0.0000E+00
    -13.203  0.0000E+00  0.0000E+00
    -13.144  0.0000E+00  0.0000E+00
    -13.086  0.0000E+00  0.0000E+00
    -13.027  0.0000E+00  0.0000E+00
    -12.968  0.0000E+00  0.0000E+00
    -12.910  0.0000E+00  0.0000E+00
    -12.851  0.5069E-07  0.2972E-08
    -12.793  0.3709E-06  0.2471E-07
    -12.734  0.1426E-05  0.1083E-06
    -12.675  0.5422E-05  0.4262E-06
    -12.617  0.2089E-04  0.1651E-05
    -12.558  0.7659E-04  0.6141E-05
    -12.499  0.2438E-03  0.2043E-04
    -12.441  0.5657E-03  0.5360E-04
    -12.382  0.8846E-03  0.1055E-03
    -12.324  0.1033E-02  0.1660E-03
    -12.265  0.1102E-02  0.2306E-03
    -12.206  0.1160E-02  0.2986E-03
    -12.148  0.1124E-02  0.3645E-03
    -12.089  0.1129E-02  0.4308E-03
    -12.031  0.1238E-02  0.5034E-03
    -11.972  0.1267E-02  0.5777E-03
    -11.913  0.1193E-02  0.6477E-03
    -11.855  0.1172E-02  0.7165E-03
    -11.796  0.1245E-02  0.7895E-03
    -11.737  0.1308E-02  0.8663E-03
    -11.679  0.1343E-02  0.9451E-03
    -11.620  0.1514E-02  0.1034E-02
    -11.562  0.2056E-02  0.1154E-02
    -11.503  0.2918E-02  0.1326E-02
    -11.444  0.3393E-02  0.1525E-02
    -11.386  0.3256E-02  0.1715E-02
    -11.327  0.3085E-02  0.1896E-02
    -11.268  0.3204E-02  0.2084E-02
    -11.210  0.3295E-02  0.2277E-02
    -11.151  0.3345E-02  0.2474E-02
    -11.093  0.3404E-02  0.2673E-02
    -11.034  0.3313E-02  0.2868E-02
    -10.975  0.3089E-02  0.3049E-02
    -10.917  0.3210E-02  0.3237E-02
    -10.858  0.3551E-02  0.3446E-02
    -10.799  0.4098E-02  0.3686E-02
    -10.741  0.4797E-02  0.3967E-02
    -10.682  0.5269E-02  0.4276E-02
    -10.624  0.5614E-02  0.4606E-02
    -10.565  0.6374E-02  0.4979E-02
    -10.506  0.7219E-02  0.5403E-02
    -10.448  0.6810E-02  0.5802E-02
    -10.389  0.5421E-02  0.6120E-02
    -10.330  0.4390E-02  0.6378E-02
    -10.272  0.3933E-02  0.6609E-02
    -10.213  0.3981E-02  0.6842E-02
    -10.155  0.3976E-02  0.7076E-02
    -10.096  0.3835E-02  0.7301E-02
    -10.037  0.4017E-02  0.7536E-02
     -9.979  0.3771E-02  0.7758E-02
     -9.920  0.2537E-02  0.7907E-02
     -9.861  0.1110E-02  0.7972E-02
     -9.803  0.3498E-03  0.7992E-02
     -9.744  0.9426E-04  0.7998E-02
     -9.686  0.2192E-04  0.8000E-02
     -9.627  0.2076E-05  0.8000E-02
     -9.568  0.0000E+00  0.8000E-02
     -9.510  0.0000E+00  0.8000E-02
     -9.451  0.0000E+00  0.8000E-02
     -9.392  0.0000E+00  0.8000E-02
     -9.334  0.0000E+00  0.8000E-02
     -9.275  0.0000E+00  0.8000E-02
     -9.217  0.0000E+00  0.8000E-02
     -9.158  0.0000E+00  0.8000E-02
     -9.099  0.0000E+00  0.8000E-02
     -9.041  0.0000E+00  0.8000E-02
     -8.982  0.0000E+00  0.8000E-02
     -8.923  0.0000E+00  0.8000E-02
     -8.865  0.0000E+00  0.8000E-02
     -8.806  0.0000E+00  0.8000E-02
     -8.748  0.0000E+00  0.8000E-02
     -8.689  0.0000E+00  0.8000E-02
     -8.630  0.0000E+00  0.8000E-02
     -8.572  0.0000E+00  0.8000E-02
     -8.513  0.0000E+00  0.8000E-02
     -8.454  0.0000E+00  0.8000E-02
     -8.396  0.0000E+00  0.8000E-02
     -8.337  0.0000E+00  0.8000E-02
     -8.279  0.0000E+00  0.8000E-02
     -8.220  0.0000E+00  0.8000E-02
     -8.161  0.0000E+00  0.8000E-02
     -8.103  0.0000E+00  0.8000E-02
     -8.044  0.0000E+00  0.8000E-02
     -7.985  0.0000E+00  0.8000E-02
     -7.927  0.0000E+00  0.8000E-02
     -7.868  0.0000E+00  0.8000E-02
     -7.810  0.0000E+00  0.8000E-02
     -7.751  0.0000E+00  0.8000E-02
     -7.692  0.0000E+00  0.8000E-02
     -7.634  0.0000E+00  0.8000E-02
     -7.575  0.0000E+00  0.8000E-02
     -7.516  0.0000E+00  0.8000E-02
     -7.458  0.0000E+00  0.8000E-02
     -7.399  0.0000E+00  0.8000E-02
     -7.341  0.0000E+00  0.8000E-02
     -7.282  0.0000E+00  0.8000E-02
     -7.223  0.0000E+00  0.8000E-02
     -7.165  0.0000E+00  0.8000E-02
     -7.106  0.0000E+00  0.8000E-02
     -7.047  0.0000E+00  0.8000E-02
     -6.989  0.0000E+00  0.8000E-02
     -6.930  0.0000E+00  0.8000E-02
     -6.872  0.0000E+00  0.8000E-02
     -6.813  0.0000E+00  0.8000E-02
     -6.754  0.0000E+00  0.8000E-02
     -6.696  0.0000E+00  0.8000E-02
     -6.637  0.0000E+00  0.8000E-02
     -6.578  0.0000E+00  0.8000E-02
     -6.520  0.0000E+00  0.8000E-02
     -6.461  0.0000E+00  0.8000E-02
     -6.403  0.0000E+00  0.8000E-02
     -6.344  0.0000E+00  0.8000E-02
     -6.285  0.0000E+00  0.8000E-02
     -6.227  0.0000E+00  0.8000E-02
     -6.168  0.0000E+00  0.8000E-02
     -6.109  0.0000E+00  0.8000E-02
     -6.051  0.0000E+00  0.8000E-02
     -5.992  0.0000E+00  0.8000E-02
     -5.934  0.0000E+00  0.8000E-02
     -5.875  0.0000E+00  0.8000E-02
     -5.816  0.0000E+00  0.8000E-02
     -5.758  0.1054E-06  0.8000E-02
     -5.699  0.3508E-06  0.8000E-02
     -5.640  0.1530E-05  0.8000E-02
     -5.582  0.6139E-05  0.8000E-02
     -5.523  0.2351E-04  0.8002E-02
     -5.465  0.8428E-04  0.8007E-02
     -5.406  0.2549E-03  0.8022E-02
     -5.347  0.5635E-03  0.8055E-02
     -5.289  0.9905E-03  0.8113E-02
     -5.230  0.1540E-02  0.8203E-02
     -5.171  0.1853E-02  0.8312E-02
     -5.113  0.1832E-02  0.8419E-02
     -5.054  0.1769E-02  0.8523E-02
     -4.996  0.1917E-02  0.8635E-02
     -4.937  0.2250E-02  0.8767E-02
     -4.878  0.2553E-02  0.8917E-02
     -4.820  0.2511E-02  0.9064E-02
     -4.761  0.2320E-02  0.9200E-02
     -4.702  0.2217E-02  0.9330E-02
     -4.644  0.2378E-02  0.9470E-02
     -4.585  0.2893E-02  0.9640E-02
     -4.527  0.3710E-02  0.9857E-02
     -4.468  0.4705E-02  0.1013E-01
     -4.409  0.5862E-02  0.1048E-01
     -4.351  0.6997E-02  0.1089E-01
     -4.292  0.7640E-02  0.1134E-01
     -4.233  0.7826E-02  0.1179E-01
     -4.175  0.7285E-02  0.1222E-01
     -4.116  0.6159E-02  0.1258E-01
     -4.058  0.5448E-02  0.1290E-01
     -3.999  0.5029E-02  0.1320E-01
     -3.940  0.4555E-02  0.1346E-01
     -3.882  0.4113E-02  0.1371E-01
     -3.823  0.3777E-02  0.1393E-01
     -3.764  0.3739E-02  0.1415E-01
     -3.706  0.3646E-02  0.1436E-01
     -3.647  0.3206E-02  0.1455E-01
     -3.589  0.3108E-02  0.1473E-01
     -3.530  0.3745E-02  0.1495E-01
     -3.471  0.4847E-02  0.1524E-01
     -3.413  0.5890E-02  0.1558E-01
     -3.354  0.6329E-02  0.1595E-01
     -3.295  0.5749E-02  0.1629E-01
     -3.237  0.4596E-02  0.1656E-01
     -3.178  0.3831E-02  0.1678E-01
     -3.120  0.3550E-02  0.1699E-01
     -3.061  0.3884E-02  0.1722E-01
     -3.002  0.4869E-02  0.1751E-01
     -2.944  0.5561E-02  0.1783E-01
     -2.885  0.5346E-02  0.1815E-01
     -2.826  0.5311E-02  0.1846E-01
     -2.768  0.5886E-02  0.1880E-01
     -2.709  0.6525E-02  0.1919E-01
     -2.651  0.7119E-02  0.1960E-01
     -2.592  0.7201E-02  0.2003E-01
     -2.533  0.6717E-02  0.2042E-01
     -2.475  0.6791E-02  0.2082E-01
     -2.416  0.6706E-02  0.2121E-01
     -2.357  0.5626E-02  0.2154E-01
     -2.299  0.4846E-02  0.2183E-01
     -2.240  0.4861E-02  0.2211E-01
     -2.182  0.5186E-02  0.2241E-01
     -2.123  0.5186E-02  0.2272E-01
     -2.064  0.5114E-02  0.2302E-01
     -2.006  0.5270E-02  0.2333E-01
     -1.947  0.5365E-02  0.2364E-01
     -1.888  0.5331E-02  0.2396E-01
     -1.830  0.5557E-02  0.2428E-01
     -1.771  0.6097E-02  0.2464E-01
     -1.713  0.6518E-02  0.2502E-01
     -1.654  0.6741E-02  0.2542E-01
     -1.595  0.6410E-02  0.2579E-01
     -1.537  0.5929E-02  0.2614E-01
     -1.478  0.6326E-02  0.2651E-01
     -1.419  0.8026E-02  0.2698E-01
     -1.361  0.9562E-02  0.2754E-01
     -1.302  0.9088E-02  0.2808E-01
     -1.244  0.7200E-02  0.2850E-01
     -1.185  0.5578E-02  0.2883E-01
     -1.126  0.5176E-02  0.2913E-01
     -1.068  0.6024E-02  0.2948E-01
     -1.009  0.7215E-02  0.2991E-01
     -0.950  0.8315E-02  0.3040E-01
     -0.892  0.8733E-02  0.3091E-01
     -0.833  0.7956E-02  0.3137E-01
     -0.775  0.7132E-02  0.3179E-01
     -0.716  0.6891E-02  0.3220E-01
     -0.657  0.6461E-02  0.3258E-01
     -0.599  0.5749E-02  0.3291E-01
     -0.540  0.5690E-02  0.3325E-01
     -0.482  0.5484E-02  0.3357E-01
     -0.423  0.4785E-02  0.3385E-01
     -0.364  0.4769E-02  0.3413E-01
     -0.306  0.4600E-02  0.3440E-01
     -0.247  0.4240E-02  0.3465E-01
     -0.188  0.4171E-02  0.3489E-01
     -0.130  0.3879E-02  0.3512E-01
     -0.071  0.3529E-02  0.3533E-01
     -0.013  0.3192E-02  0.3551E-01
      0.046  0.2423E-02  0.3566E-01
      0.105  0.1477E-02  0.3574E-01
      0.163  0.8596E-03  0.3579E-01
      0.222  0.6097E-03  0.3583E-01
      0.281  0.5942E-03  0.3587E-01
      0.339  0.8082E-03  0.3591E-01
      0.398  0.1143E-02  0.3598E-01
      0.456  0.1479E-02  0.3607E-01
      0.515  0.1774E-02  0.3617E-01
      0.574  0.2064E-02  0.3629E-01
      0.632  0.2512E-02  0.3644E-01
      0.691  0.3193E-02  0.3663E-01
      0.750  0.3686E-02  0.3684E-01
      0.808  0.3298E-02  0.3704E-01
      0.867  0.2560E-02  0.3719E-01
      0.925  0.2144E-02  0.3731E-01
      0.984  0.1932E-02  0.3742E-01
      1.043  0.2092E-02  0.3755E-01
      1.101  0.2217E-02  0.3768E-01
      1.160  0.2278E-02  0.3781E-01
      1.219  0.2787E-02  0.3797E-01
      1.277  0.3655E-02  0.3819E-01
      1.336  0.4424E-02  0.3845E-01
      1.394  0.5359E-02  0.3876E-01
      1.453  0.6296E-02  0.3913E-01
      1.512  0.6369E-02  0.3951E-01
      1.570  0.4701E-02  0.3978E-01
      1.629  0.2759E-02  0.3994E-01
      1.688  0.2499E-02  0.4009E-01
      1.746  0.4098E-02  0.4033E-01
      1.805  0.6253E-02  0.4070E-01
      1.863  0.7024E-02  0.4111E-01
      1.922  0.6654E-02  0.4150E-01
      1.981  0.6358E-02  0.4187E-01
      2.039  0.6659E-02  0.4226E-01
      2.098  0.7275E-02  0.4269E-01
      2.157  0.7043E-02  0.4310E-01
      2.215  0.6194E-02  0.4347E-01
      2.274  0.5673E-02  0.4380E-01
      2.332  0.5979E-02  0.4415E-01
      2.391  0.7274E-02  0.4458E-01
      2.450  0.8405E-02  0.4507E-01
      2.508  0.8114E-02  0.4555E-01
      2.567  0.6437E-02  0.4592E-01
      2.626  0.5213E-02  0.4623E-01
      2.684  0.4970E-02  0.4652E-01
      2.743  0.4506E-02  0.4679E-01
      2.801  0.3763E-02  0.4701E-01
      2.860  0.3115E-02  0.4719E-01
      2.919  0.2478E-02  0.4733E-01
      2.977  0.1632E-02  0.4743E-01
      3.036  0.9802E-03  0.4749E-01
      3.095  0.9032E-03  0.4754E-01
      3.153  0.1273E-02  0.4762E-01
      3.212  0.1595E-02  0.4771E-01
      3.270  0.1361E-02  0.4779E-01
      3.329  0.8735E-03  0.4784E-01
      3.388  0.6814E-03  0.4788E-01
      3.446  0.6948E-03  0.4792E-01
      3.505  0.6351E-03  0.4796E-01
      3.564  0.4248E-03  0.4798E-01
      3.622  0.1884E-03  0.4800E-01
      3.681  0.5975E-04  0.4800E-01
      3.739  0.1612E-04  0.4800E-01
      3.798  0.3804E-05  0.4800E-01
      3.857  0.5707E-06  0.4800E-01
      3.915  0.0000E+00  0.4800E-01
      3.974  0.0000E+00  0.4800E-01
      4.033  0.0000E+00  0.4800E-01
      4.091  0.0000E+00  0.4800E-01
      4.150  0.0000E+00  0.4800E-01
      4.208  0.0000E+00  0.4800E-01
      4.267  0.0000E+00  0.4800E-01
      4.326  0.0000E+00  0.4800E-01
