    6    6 1000    1
  0.5861956E+02  0.3452000E-09  0.6368000E-09  0.1600000E-08  0.5000000E-15
  1.000000000000000E-004
  CAR 
 2D MoTe2 in a box                       
     36    162     24
 
  0.2777778E-01  0.2777778E-01  0.1262379E-14  0.6172840E-02
    1      -12.462191
    2      -11.562026
    3      -10.754599
    4      -10.493309
    5       -5.240599
    6       -4.567409
    7       -4.307856
    8       -3.555167
    9       -2.429866
   10       -2.017658
   11       -1.959879
   12       -1.650982
   13       -1.316450
   14       -0.954321
   15       -0.676310
   16       -0.218596
   17       -0.000389
   18        0.594806
   19        0.901051
   20        1.519421
   21        2.036369
   22        2.426378
   23        2.622409
   24        3.526269
 
  0.8333333E-01  0.2777778E-01  0.1262379E-14  0.6172840E-02
    1      -12.393054
    2      -11.515210
    3      -10.718794
    4      -10.447316
    5       -5.168387
    6       -4.488747
    7       -4.278527
    8       -3.523629
    9       -2.469395
   10       -2.174847
   11       -2.053523
   12       -1.710247
   13       -1.315095
   14       -0.913033
   15       -0.709455
   16       -0.390119
   17       -0.005149
   18        0.442970
   19        0.586367
   20        1.665189
   21        2.142733
   22        2.365298
   23        2.434033
   24        3.115742
 
  0.1388889E+00  0.2777778E-01  0.1262379E-14  0.6172840E-02
    1      -12.256543
    2      -11.423685
    3      -10.650614
    4      -10.360079
    5       -5.029804
    6       -4.352793
    7       -4.214656
    8       -3.473812
    9       -2.548937
   10       -2.457955
   11       -2.121790
   12       -1.940479
   13       -1.345691
   14       -1.027212
   15       -0.804194
   16       -0.524716
   17       -0.012852
   18        0.089248
   19        0.361751
   20        1.635037
   21        2.199544
   22        2.300150
   23        2.409590
   24        2.568948
 
  0.1944444E+00  0.2777778E-01  0.1262379E-14  0.6172840E-02
    1      -12.056430
    2      -11.291962
    3      -10.557275
    4      -10.242213
    5       -4.838703
    6       -4.264136
    7       -4.045581
    8       -3.432003
    9       -2.847867
   10       -2.623340
   11       -2.307696
   12       -2.206466
   13       -1.392190
   14       -1.228046
   15       -1.079134
   16       -0.708021
   17       -0.329943
   18        0.009074
   19        0.353152
   20        1.460311
   21        2.100625
   22        2.216341
   23        2.391934
   24        2.419468
 
  0.2500000E+00  0.2777778E-01  0.1262379E-14  0.6172840E-02
    1      -11.799122
    2      -11.127453
    3      -10.450277
    4      -10.112230
    5       -4.623322
    6       -4.264678
    7       -3.779281
    8       -3.477239
    9       -3.310525
   10       -2.661505
   11       -2.518383
   12       -2.426172
   13       -1.702514
   14       -1.416346
   15       -1.350037
   16       -0.983980
   17       -0.542170
   18       -0.042492
   19        0.499932
   20        1.349588
   21        1.831720
   22        2.240765
   23        2.361465
   24        2.509496
 
  0.3055556E+00  0.2777778E-01  0.1262379E-14  0.6172840E-02
    1      -11.494800
    2      -10.941397
    3      -10.345656
    4       -9.998954
    5       -4.443496
    6       -4.317201
    7       -3.964416
    8       -3.480083
    9       -3.331588
   10       -2.807376
   11       -2.683198
   12       -2.597003
   13       -2.240216
   14       -1.529556
   15       -1.406310
   16       -1.226938
   17       -0.690810
   18       -0.177690
   19        0.738017
   20        1.321494
   21        1.732818
   22        2.259213
   23        2.346748
   24        2.465721
 
  0.3611111E+00  0.2777778E-01  0.1262379E-14  0.6172840E-02
    1      -11.159832
    2      -10.750218
    3      -10.262659
    4       -9.940989
    5       -4.471029
    6       -4.343796
    7       -4.311661
    8       -3.411659
    9       -3.256064
   10       -3.092426
   11       -2.838563
   12       -2.799348
   13       -2.224648
   14       -1.688879
   15       -1.440555
   16       -1.326645
   17       -0.851371
   18       -0.390213
   19        1.012664
   20        1.369764
   21        1.757209
   22        2.089293
   23        2.279424
   24        2.487199
 
  0.4166667E+00  0.2777778E-01  0.1262379E-14  0.6172840E-02
    1      -10.822117
    2      -10.577683
    3      -10.217377
    4       -9.974770
    5       -4.638798
    6       -4.466145
    7       -4.319377
    8       -3.843125
    9       -3.317515
   10       -3.227195
   11       -2.751483
   12       -2.611061
   13       -2.087729
   14       -1.872904
   15       -1.466295
   16       -1.304771
   17       -1.005190
   18       -0.664105
   19        1.272666
   20        1.459010
   21        1.812139
   22        1.910185
   23        2.164903
   24        2.495741
 
  0.4722222E+00  0.2777778E-01  0.1262379E-14  0.6172840E-02
    1      -10.542318
    2      -10.467405
    3      -10.197262
    4      -10.099299
    5       -4.643798
    6       -4.535908
    7       -4.340811
    8       -4.213065
    9       -3.380947
   10       -3.348430
   11       -2.459693
   12       -2.335267
   13       -2.176378
   14       -2.084899
   15       -1.332882
   16       -1.252314
   17       -1.100017
   18       -0.961397
   19        1.451696
   20        1.505044
   21        1.806048
   22        1.810037
   23        2.223280
   24        2.381818
 
 -0.4722222E+00  0.2777778E-01  0.1262379E-14  0.6172840E-02
    1      -10.542318
    2      -10.467405
    3      -10.197262
    4      -10.099299
    5       -4.643798
    6       -4.535908
    7       -4.340811
    8       -4.213065
    9       -3.380947
   10       -3.348430
   11       -2.459693
   12       -2.335267
   13       -2.176378
   14       -2.084899
   15       -1.332882
   16       -1.252314
   17       -1.100017
   18       -0.961397
   19        1.451696
   20        1.505044
   21        1.806048
   22        1.810037
   23        2.223280
   24        2.381818
 
 -0.4166667E+00  0.2777778E-01  0.1262379E-14  0.6172840E-02
    1      -10.822117
    2      -10.577683
    3      -10.217377
    4       -9.974770
    5       -4.638798
    6       -4.466145
    7       -4.319377
    8       -3.843125
    9       -3.317515
   10       -3.227195
   11       -2.751483
   12       -2.611061
   13       -2.087729
   14       -1.872904
   15       -1.466295
   16       -1.304771
   17       -1.005190
   18       -0.664105
   19        1.272666
   20        1.459010
   21        1.812139
   22        1.910185
   23        2.164903
   24        2.495741
 
 -0.3611111E+00  0.2777778E-01  0.1262379E-14  0.6172840E-02
    1      -11.159832
    2      -10.750218
    3      -10.262659
    4       -9.940989
    5       -4.471029
    6       -4.343796
    7       -4.311661
    8       -3.411659
    9       -3.256064
   10       -3.092426
   11       -2.838563
   12       -2.799348
   13       -2.224648
   14       -1.688879
   15       -1.440555
   16       -1.326645
   17       -0.851371
   18       -0.390213
   19        1.012664
   20        1.369764
   21        1.757209
   22        2.089293
   23        2.279424
   24        2.487199
 
 -0.3055556E+00  0.2777778E-01  0.1262379E-14  0.6172840E-02
    1      -11.494800
    2      -10.941397
    3      -10.345656
    4       -9.998954
    5       -4.443496
    6       -4.317201
    7       -3.964416
    8       -3.480083
    9       -3.331588
   10       -2.807376
   11       -2.683198
   12       -2.597003
   13       -2.240216
   14       -1.529556
   15       -1.406310
   16       -1.226938
   17       -0.690810
   18       -0.177690
   19        0.738017
   20        1.321494
   21        1.732818
   22        2.259213
   23        2.346748
   24        2.465721
 
 -0.2500000E+00  0.2777778E-01  0.1262379E-14  0.6172840E-02
    1      -11.799122
    2      -11.127453
    3      -10.450277
    4      -10.112230
    5       -4.623322
    6       -4.264678
    7       -3.779281
    8       -3.477239
    9       -3.310525
   10       -2.661505
   11       -2.518383
   12       -2.426172
   13       -1.702514
   14       -1.416346
   15       -1.350037
   16       -0.983980
   17       -0.542170
   18       -0.042492
   19        0.499932
   20        1.349588
   21        1.831720
   22        2.240765
   23        2.361465
   24        2.509496
 
 -0.1944444E+00  0.2777778E-01  0.1262379E-14  0.6172840E-02
    1      -12.056430
    2      -11.291962
    3      -10.557275
    4      -10.242213
    5       -4.838703
    6       -4.264136
    7       -4.045581
    8       -3.432003
    9       -2.847867
   10       -2.623340
   11       -2.307696
   12       -2.206466
   13       -1.392190
   14       -1.228046
   15       -1.079134
   16       -0.708021
   17       -0.329943
   18        0.009074
   19        0.353152
   20        1.460311
   21        2.100625
   22        2.216341
   23        2.391934
   24        2.419468
 
 -0.1388889E+00  0.2777778E-01  0.1262379E-14  0.6172840E-02
    1      -12.256543
    2      -11.423685
    3      -10.650614
    4      -10.360079
    5       -5.029804
    6       -4.352793
    7       -4.214656
    8       -3.473812
    9       -2.548937
   10       -2.457955
   11       -2.121790
   12       -1.940479
   13       -1.345691
   14       -1.027212
   15       -0.804194
   16       -0.524716
   17       -0.012852
   18        0.089248
   19        0.361751
   20        1.635037
   21        2.199544
   22        2.300150
   23        2.409590
   24        2.568948
 
 -0.8333333E-01  0.2777778E-01  0.1262379E-14  0.6172840E-02
    1      -12.393054
    2      -11.515210
    3      -10.718794
    4      -10.447316
    5       -5.168387
    6       -4.488747
    7       -4.278527
    8       -3.523629
    9       -2.469395
   10       -2.174847
   11       -2.053523
   12       -1.710247
   13       -1.315095
   14       -0.913033
   15       -0.709455
   16       -0.390119
   17       -0.005149
   18        0.442970
   19        0.586367
   20        1.665189
   21        2.142733
   22        2.365298
   23        2.434033
   24        3.115742
 
 -0.2777778E-01  0.2777778E-01  0.1262379E-14  0.6172840E-02
    1      -12.462191
    2      -11.562026
    3      -10.754599
    4      -10.493309
    5       -5.240599
    6       -4.567409
    7       -4.307856
    8       -3.555167
    9       -2.429866
   10       -2.017658
   11       -1.959879
   12       -1.650982
   13       -1.316450
   14       -0.954321
   15       -0.676310
   16       -0.218596
   17       -0.000389
   18        0.594806
   19        0.901051
   20        1.519421
   21        2.036369
   22        2.426378
   23        2.622409
   24        3.526269
 
  0.2777778E-01  0.8333333E-01  0.1262379E-14  0.6172840E-02
    1      -12.443845
    2      -11.553092
    3      -10.795689
    4      -10.502431
    5       -5.216396
    6       -4.516597
    7       -4.289562
    8       -3.529589
    9       -2.479793
   10       -2.019903
   11       -1.937389
   12       -1.650962
   13       -1.396908
   14       -0.887890
   15       -0.704451
   16       -0.228320
   17        0.002907
   18        0.533888
   19        0.885302
   20        1.516087
   21        2.003319
   22        2.413762
   23        2.655387
   24        3.496935
 
  0.8333333E-01  0.8333333E-01  0.1262379E-14  0.6172840E-02
    1      -12.374903
    2      -11.506350
    3      -10.758031
    4      -10.457442
    5       -5.142860
    6       -4.437530
    7       -4.264181
    8       -3.496987
    9       -2.520376
   10       -2.187799
   11       -2.029005
   12       -1.702487
   13       -1.367243
   14       -0.891697
   15       -0.734554
   16       -0.377605
   17       -0.020957
   18        0.347385
   19        0.659334
   20        1.608629
   21        2.085170
   22        2.404756
   23        2.453621
   24        3.134386
 
  0.1388889E+00  0.8333333E-01  0.1262379E-14  0.6172840E-02
    1      -12.238802
    2      -11.414995
    3      -10.686473
    4      -10.371765
    5       -5.001723
    6       -4.302437
    7       -4.207797
    8       -3.447563
    9       -2.597624
   10       -2.449949
   11       -2.150987
   12       -1.896643
   13       -1.383277
   14       -1.047365
   15       -0.812900
   16       -0.511049
   17       -0.053682
   18        0.038998
   19        0.437609
   20        1.593284
   21        2.098925
   22        2.363005
   23        2.397036
   24        2.638081
 
  0.1944444E+00  0.8333333E-01  0.1262379E-14  0.6172840E-02
    1      -12.039367
    2      -11.283577
    3      -10.588729
    4      -10.255205
    5       -4.807786
    6       -4.238189
    7       -4.030831
    8       -3.413325
    9       -2.838583
   10       -2.630991
   11       -2.395402
   12       -2.132173
   13       -1.439615
   14       -1.299303
   15       -1.000938
   16       -0.731692
   17       -0.325843
   18       -0.035492
   19        0.401865
   20        1.458062
   21        2.034515
   22        2.161386
   23        2.400428
   24        2.536344
 
  0.2500000E+00  0.8333333E-01  0.1262379E-14  0.6172840E-02
    1      -11.783077
    2      -11.119565
    3      -10.476794
    4      -10.125325
    5       -4.596978
    6       -4.249092
    7       -3.799690
    8       -3.435549
    9       -3.299665
   10       -2.647148
   11       -2.577208
   12       -2.393375
   13       -1.808848
   14       -1.428795
   15       -1.244087
   16       -0.992599
   17       -0.535332
   18       -0.096980
   19        0.532366
   20        1.362734
   21        1.817089
   22        2.166722
   23        2.362697
   24        2.621910
 
  0.3055556E+00  0.8333333E-01  0.1262379E-14  0.6172840E-02
    1      -11.480306
    2      -10.934261
    3      -10.367041
    4      -10.010068
    5       -4.481351
    6       -4.274948
    7       -3.948497
    8       -3.481306
    9       -3.333542
   10       -2.791074
   11       -2.692206
   12       -2.609688
   13       -2.257451
   14       -1.515557
   15       -1.353759
   16       -1.222950
   17       -0.695358
   18       -0.226363
   19        0.755118
   20        1.341337
   21        1.727685
   22        2.220213
   23        2.322174
   24        2.583268
 
  0.3611111E+00  0.8333333E-01  0.1262379E-14  0.6172840E-02
    1      -11.147781
    2      -10.744120
    3      -10.278906
    4       -9.947584
    5       -4.599404
    6       -4.330057
    7       -4.189545
    8       -3.495721
    9       -3.307959
   10       -2.992580
   11       -2.826559
   12       -2.795704
   13       -2.199889
   14       -1.672665
   15       -1.395193
   16       -1.325818
   17       -0.865125
   18       -0.420376
   19        1.014621
   20        1.394148
   21        1.757211
   22        2.089198
   23        2.315741
   24        2.507801
 
  0.4166667E+00  0.8333333E-01  0.1262379E-14  0.6172840E-02
    1      -10.814303
    2      -10.572960
    3      -10.228244
    4       -9.974831
    5       -4.754001
    6       -4.410628
    7       -4.329735
    8       -3.872737
    9       -3.361418
   10       -3.111918
   11       -2.759972
   12       -2.587881
   13       -2.066902
   14       -1.859147
   15       -1.414793
   16       -1.305018
   17       -1.027418
   18       -0.668025
   19        1.263405
   20        1.482548
   21        1.821642
   22        1.930003
   23        2.201216
   24        2.490988
 
  0.4722222E+00  0.8333333E-01  0.1262379E-14  0.6172840E-02
    1      -10.541894
    2      -10.465808
    3      -10.199171
    4      -10.093614
    5       -4.745901
    6       -4.574775
    7       -4.351003
    8       -4.193858
    9       -3.356021
   10       -3.269336
   11       -2.467376
   12       -2.323772
   13       -2.155932
   14       -2.067810
   15       -1.303203
   16       -1.237505
   17       -1.120971
   18       -0.942654
   19        1.444999
   20        1.515941
   21        1.830334
   22        1.839085
   23        2.235220
   24        2.381619
 
 -0.4722222E+00  0.8333333E-01  0.1262379E-14  0.6172840E-02
    1      -10.541894
    2      -10.465808
    3      -10.199171
    4      -10.093614
    5       -4.745901
    6       -4.574775
    7       -4.351003
    8       -4.193858
    9       -3.356021
   10       -3.269336
   11       -2.467376
   12       -2.323772
   13       -2.155932
   14       -2.067810
   15       -1.303203
   16       -1.237505
   17       -1.120971
   18       -0.942654
   19        1.444999
   20        1.515941
   21        1.830334
   22        1.839085
   23        2.235220
   24        2.381619
 
 -0.4166667E+00  0.8333333E-01  0.1262379E-14  0.6172840E-02
    1      -10.814303
    2      -10.572960
    3      -10.228244
    4       -9.974831
    5       -4.754001
    6       -4.410628
    7       -4.329735
    8       -3.872737
    9       -3.361418
   10       -3.111918
   11       -2.759972
   12       -2.587881
   13       -2.066902
   14       -1.859147
   15       -1.414793
   16       -1.305018
   17       -1.027418
   18       -0.668025
   19        1.263405
   20        1.482548
   21        1.821642
   22        1.930003
   23        2.201216
   24        2.490988
 
 -0.3611111E+00  0.8333333E-01  0.1262379E-14  0.6172840E-02
    1      -11.147781
    2      -10.744120
    3      -10.278906
    4       -9.947584
    5       -4.599404
    6       -4.330057
    7       -4.189545
    8       -3.495721
    9       -3.307959
   10       -2.992580
   11       -2.826559
   12       -2.795704
   13       -2.199889
   14       -1.672665
   15       -1.395193
   16       -1.325818
   17       -0.865125
   18       -0.420376
   19        1.014621
   20        1.394148
   21        1.757211
   22        2.089198
   23        2.315741
   24        2.507801
 
 -0.3055556E+00  0.8333333E-01  0.1262379E-14  0.6172840E-02
    1      -11.480306
    2      -10.934261
    3      -10.367041
    4      -10.010068
    5       -4.481351
    6       -4.274948
    7       -3.948497
    8       -3.481306
    9       -3.333542
   10       -2.791074
   11       -2.692206
   12       -2.609688
   13       -2.257451
   14       -1.515557
   15       -1.353759
   16       -1.222950
   17       -0.695358
   18       -0.226363
   19        0.755118
   20        1.341337
   21        1.727685
   22        2.220213
   23        2.322174
   24        2.583268
 
 -0.2500000E+00  0.8333333E-01  0.1262379E-14  0.6172840E-02
    1      -11.783077
    2      -11.119565
    3      -10.476794
    4      -10.125325
    5       -4.596978
    6       -4.249092
    7       -3.799690
    8       -3.435549
    9       -3.299665
   10       -2.647148
   11       -2.577208
   12       -2.393375
   13       -1.808848
   14       -1.428795
   15       -1.244087
   16       -0.992599
   17       -0.535332
   18       -0.096980
   19        0.532366
   20        1.362734
   21        1.817089
   22        2.166722
   23        2.362697
   24        2.621910
 
 -0.1944444E+00  0.8333333E-01  0.1262379E-14  0.6172840E-02
    1      -12.039367
    2      -11.283577
    3      -10.588729
    4      -10.255205
    5       -4.807786
    6       -4.238189
    7       -4.030831
    8       -3.413325
    9       -2.838583
   10       -2.630991
   11       -2.395402
   12       -2.132173
   13       -1.439615
   14       -1.299303
   15       -1.000938
   16       -0.731692
   17       -0.325843
   18       -0.035492
   19        0.401865
   20        1.458062
   21        2.034515
   22        2.161386
   23        2.400428
   24        2.536344
 
 -0.1388889E+00  0.8333333E-01  0.1262379E-14  0.6172840E-02
    1      -12.238802
    2      -11.414995
    3      -10.686473
    4      -10.371765
    5       -5.001723
    6       -4.302437
    7       -4.207797
    8       -3.447563
    9       -2.597624
   10       -2.449949
   11       -2.150987
   12       -1.896643
   13       -1.383277
   14       -1.047365
   15       -0.812900
   16       -0.511049
   17       -0.053682
   18        0.038998
   19        0.437609
   20        1.593284
   21        2.098925
   22        2.363005
   23        2.397036
   24        2.638081
 
 -0.8333333E-01  0.8333333E-01  0.1262379E-14  0.6172840E-02
    1      -12.374903
    2      -11.506350
    3      -10.758031
    4      -10.457442
    5       -5.142860
    6       -4.437530
    7       -4.264181
    8       -3.496987
    9       -2.520376
   10       -2.187799
   11       -2.029005
   12       -1.702487
   13       -1.367243
   14       -0.891697
   15       -0.734554
   16       -0.377605
   17       -0.020957
   18        0.347385
   19        0.659334
   20        1.608629
   21        2.085170
   22        2.404756
   23        2.453621
   24        3.134386
 
 -0.2777778E-01  0.8333333E-01  0.1262379E-14  0.6172840E-02
    1      -12.443845
    2      -11.553092
    3      -10.795689
    4      -10.502431
    5       -5.216396
    6       -4.516597
    7       -4.289562
    8       -3.529589
    9       -2.479793
   10       -2.019903
   11       -1.937389
   12       -1.650962
   13       -1.396908
   14       -0.887890
   15       -0.704451
   16       -0.228320
   17        0.002907
   18        0.533888
   19        0.885302
   20        1.516087
   21        2.003319
   22        2.413762
   23        2.655387
   24        3.496935
 
  0.2777778E-01  0.1388889E+00  0.1262379E-14  0.6172840E-02
    1      -12.407385
    2      -11.535921
    3      -10.871172
    4      -10.523069
    5       -5.168048
    6       -4.434675
    7       -4.237595
    8       -3.488140
    9       -2.567621
   10       -2.017273
   11       -1.900704
   12       -1.652985
   13       -1.495834
   14       -0.824795
   15       -0.741819
   16       -0.248178
   17       -0.007667
   18        0.432351
   19        0.840928
   20        1.512558
   21        1.947347
   22        2.384737
   23        2.714016
   24        3.459423
 
  0.8333333E-01  0.1388889E+00  0.1262379E-14  0.6172840E-02
    1      -12.338846
    2      -11.489296
    3      -10.830755
    4      -10.479279
    5       -5.092463
    6       -4.354677
    7       -4.219448
    8       -3.452306
    9       -2.613695
   10       -2.201499
   11       -1.987711
   12       -1.690343
   13       -1.445400
   14       -0.874958
   15       -0.772840
   16       -0.362767
   17       -0.059139
   18        0.239802
   19        0.719021
   20        1.518638
   21        2.012228
   22        2.388876
   23        2.526839
   24        3.165981
 
  0.1388889E+00  0.1388889E+00  0.1262379E-14  0.6172840E-02
    1      -12.203562
    2      -11.398236
    3      -10.753902
    4      -10.395506
    5       -4.947203
    6       -4.204347
    7       -4.193688
    8       -3.401412
    9       -2.690032
   10       -2.444333
   11       -2.164331
   12       -1.842551
   13       -1.453254
   14       -1.077549
   15       -0.831096
   16       -0.497597
   17       -0.093433
   18       -0.052106
   19        0.538550
   20        1.509050
   21        2.021448
   22        2.330029
   23        2.443122
   24        2.722609
 
  0.1944444E+00  0.1388889E+00  0.1262379E-14  0.6172840E-02
    1      -12.005482
    2      -11.267365
    3      -10.648786
    4      -10.280534
    5       -4.748257
    6       -4.191930
    7       -3.996297
    8       -3.383039
    9       -2.830805
   10       -2.654575
   11       -2.466474
   12       -2.068243
   13       -1.544022
   14       -1.337345
   15       -0.937360
   16       -0.751159
   17       -0.336473
   18       -0.113285
   19        0.488600
   20        1.432647
   21        1.954455
   22        2.130890
   23        2.419070
   24        2.628311
 
  0.2500000E+00  0.1388889E+00  0.1262379E-14  0.6172840E-02
    1      -11.751225
    2      -11.104270
    3      -10.528008
    4      -10.150423
    5       -4.545935
    6       -4.218096
    7       -3.817265
    8       -3.432023
    9       -3.221316
   10       -2.662985
   11       -2.624333
   12       -2.372676
   13       -1.927655
   14       -1.430379
   15       -1.127110
   16       -1.003781
   17       -0.535424
   18       -0.190589
   19        0.594076
   20        1.370098
   21        1.793292
   22        2.103010
   23        2.380232
   24        2.725358
 
  0.3055556E+00  0.1388889E+00  0.1262379E-14  0.6172840E-02
    1      -11.451563
    2      -10.920415
    3      -10.408598
    4      -10.031450
    5       -4.518260
    6       -4.227588
    7       -3.914891
    8       -3.524166
    9       -3.298248
   10       -2.793955
   11       -2.712696
   12       -2.615954
   13       -2.254514
   14       -1.495906
   15       -1.266499
   16       -1.213957
   17       -0.707237
   18       -0.310883
   19        0.790285
   20        1.366115
   21        1.721309
   22        2.157657
   23        2.355192
   24        2.706813
 
  0.3611111E+00  0.1388889E+00  0.1262379E-14  0.6172840E-02
    1      -11.123947
    2      -10.732310
    3      -10.310364
    4       -9.960664
    5       -4.710576
    6       -4.330628
    7       -4.078206
    8       -3.596935
    9       -3.365399
   10       -2.899899
   11       -2.799354
   12       -2.778171
   13       -2.150036
   14       -1.641169
   15       -1.339813
   16       -1.301695
   17       -0.891445
   18       -0.470787
   19        1.023406
   20        1.427079
   21        1.762550
   22        2.084515
   23        2.376807
   24        2.557749
 
  0.4166667E+00  0.1388889E+00  0.1262379E-14  0.6172840E-02
    1      -10.798964
    2      -10.563975
    3      -10.248541
    4       -9.975851
    5       -4.880607
    6       -4.397262
    7       -4.366130
    8       -3.903896
    9       -3.350199
   10       -2.997696
   11       -2.775436
   12       -2.546097
   13       -2.020667
   14       -1.825896
   15       -1.352757
   16       -1.284536
   17       -1.066252
   18       -0.670878
   19        1.254360
   20        1.509493
   21        1.848156
   22        1.959004
   23        2.276623
   24        2.483875
 
  0.4722222E+00  0.1388889E+00  0.1262379E-14  0.6172840E-02
    1      -10.540682
    2      -10.463590
    3      -10.201177
    4      -10.084106
    5       -4.875488
    6       -4.681108
    7       -4.351381
    8       -4.186613
    9       -3.283975
   10       -3.167162
   11       -2.485058
   12       -2.321059
   13       -2.097556
   14       -2.019604
   15       -1.296134
   16       -1.210402
   17       -1.123318
   18       -0.902785
   19        1.436867
   20        1.525208
   21        1.881672
   22        1.890415
   23        2.261743
   24        2.382978
 
 -0.4722222E+00  0.1388889E+00  0.1262379E-14  0.6172840E-02
    1      -10.540682
    2      -10.463590
    3      -10.201177
    4      -10.084106
    5       -4.875488
    6       -4.681108
    7       -4.351381
    8       -4.186613
    9       -3.283975
   10       -3.167162
   11       -2.485058
   12       -2.321059
   13       -2.097556
   14       -2.019604
   15       -1.296134
   16       -1.210402
   17       -1.123318
   18       -0.902785
   19        1.436867
   20        1.525208
   21        1.881673
   22        1.890415
   23        2.261743
   24        2.382978
 
 -0.4166667E+00  0.1388889E+00  0.1262379E-14  0.6172840E-02
    1      -10.798964
    2      -10.563975
    3      -10.248541
    4       -9.975851
    5       -4.880607
    6       -4.397262
    7       -4.366130
    8       -3.903896
    9       -3.350199
   10       -2.997696
   11       -2.775436
   12       -2.546097
   13       -2.020667
   14       -1.825896
   15       -1.352757
   16       -1.284536
   17       -1.066252
   18       -0.670878
   19        1.254360
   20        1.509493
   21        1.848156
   22        1.959004
   23        2.276623
   24        2.483875
 
 -0.3611111E+00  0.1388889E+00  0.1262379E-14  0.6172840E-02
    1      -11.123947
    2      -10.732310
    3      -10.310364
    4       -9.960664
    5       -4.710576
    6       -4.330628
    7       -4.078206
    8       -3.596935
    9       -3.365399
   10       -2.899899
   11       -2.799354
   12       -2.778171
   13       -2.150036
   14       -1.641169
   15       -1.339813
   16       -1.301695
   17       -0.891445
   18       -0.470787
   19        1.023406
   20        1.427079
   21        1.762550
   22        2.084515
   23        2.376807
   24        2.557749
 
 -0.3055556E+00  0.1388889E+00  0.1262379E-14  0.6172840E-02
    1      -11.451563
    2      -10.920415
    3      -10.408598
    4      -10.031450
    5       -4.518260
    6       -4.227588
    7       -3.914891
    8       -3.524166
    9       -3.298248
   10       -2.793955
   11       -2.712696
   12       -2.615954
   13       -2.254514
   14       -1.495906
   15       -1.266499
   16       -1.213957
   17       -0.707237
   18       -0.310883
   19        0.790285
   20        1.366115
   21        1.721309
   22        2.157657
   23        2.355192
   24        2.706813
 
 -0.2500000E+00  0.1388889E+00  0.1262379E-14  0.6172840E-02
    1      -11.751225
    2      -11.104270
    3      -10.528008
    4      -10.150423
    5       -4.545935
    6       -4.218096
    7       -3.817265
    8       -3.432023
    9       -3.221316
   10       -2.662985
   11       -2.624333
   12       -2.372676
   13       -1.927655
   14       -1.430379
   15       -1.127110
   16       -1.003781
   17       -0.535424
   18       -0.190589
   19        0.594076
   20        1.370098
   21        1.793292
   22        2.103010
   23        2.380232
   24        2.725358
 
 -0.1944444E+00  0.1388889E+00  0.1262379E-14  0.6172840E-02
    1      -12.005482
    2      -11.267365
    3      -10.648786
    4      -10.280534
    5       -4.748257
    6       -4.191930
    7       -3.996297
    8       -3.383039