       N       E                     dE             d eps       ncg     rms          rms(c)
DAV:   1     0.186018304538E+03    0.18602E+03   -0.95555E+03  7776   0.792E+02
DAV:   2    -0.182269406711E+02   -0.20425E+03   -0.19915E+03 11536   0.177E+02
DAV:   3    -0.367421038668E+02   -0.18515E+02   -0.18280E+02 10304   0.595E+01
DAV:   4    -0.374102386339E+02   -0.66813E+00   -0.66594E+00 12448   0.127E+01
DAV:   5    -0.374205908973E+02   -0.10352E-01   -0.10346E-01 11256   0.175E+00    0.216E+01
DAV:   6    -0.364834141183E+02    0.93718E+00   -0.43917E+00 10832   0.976E+00    0.868E+00
DAV:   7    -0.365103937961E+02   -0.26980E-01   -0.59845E+00  9944   0.117E+01    0.652E+00
DAV:   8    -0.360023723784E+02    0.50802E+00   -0.14316E+00 10216   0.630E+00    0.229E+00
DAV:   9    -0.359940955185E+02    0.82769E-02   -0.34033E-01 11840   0.273E+00    0.110E+00
DAV:  10    -0.359881583390E+02    0.59372E-02   -0.33133E-02 10304   0.984E-01    0.511E-01
DAV:  11    -0.359869259530E+02    0.12324E-02   -0.74181E-03 11016   0.467E-01    0.259E-01
DAV:  12    -0.359863835085E+02    0.54244E-03   -0.31929E-03 11368   0.303E-01    0.106E-01
DAV:  13    -0.359862266445E+02    0.15686E-03   -0.85583E-04 11456   0.150E-01    0.468E-02
DAV:  14    -0.359860085895E+02    0.21806E-03   -0.18960E-04  9536   0.584E-02    0.354E-02
DAV:  15    -0.359857555756E+02    0.25301E-03   -0.38771E-04  9640   0.726E-02    0.351E-02
DAV:  16    -0.359857940702E+02   -0.38495E-04   -0.21697E-05 11336   0.206E-02    0.274E-02
DAV:  17    -0.359859499466E+02   -0.15588E-03   -0.22794E-05 10936   0.230E-02    0.697E-03
DAV:  18    -0.359860709603E+02   -0.12101E-03   -0.20306E-05  9264   0.176E-02    0.154E-02
DAV:  19    -0.359861463801E+02   -0.75420E-04   -0.29464E-06  9040   0.787E-03    0.274E-03
DAV:  20    -0.359862026270E+02   -0.56247E-04   -0.16178E-06  7360   0.587E-03    0.489E-03
DAV:  21    -0.359862170755E+02   -0.14448E-04   -0.31888E-07  6368   0.223E-03    0.187E-03
DAV:  22    -0.359862238297E+02   -0.67542E-05   -0.28715E-07  6312   0.165E-03    0.148E-03
DAV:  23    -0.359862250831E+02   -0.12535E-05   -0.13621E-07  5960   0.142E-03    0.914E-04
DAV:  24    -0.359862251826E+02   -0.99467E-07   -0.26125E-08  5304   0.760E-04
   1 F= -.35986225E+02 E0= -.35982214E+02  d E =-.359862E+02
       N       E                     dE             d eps       ncg     rms          rms(c)
DAV:   1    -0.359862361200E+02   -0.11037E-04   -0.26368E-03  7928   0.246E-01    0.249E-02
DAV:   2    -0.359862375756E+02   -0.14556E-05   -0.34091E-05 10336   0.310E-02    0.110E-02
DAV:   3    -0.359862369554E+02    0.62020E-06   -0.16162E-06  6464   0.746E-03
   2 F= -.35986237E+02 E0= -.35982216E+02  d E =-.117728E-04
       N       E                     dE             d eps       ncg     rms          rms(c)
DAV:   1    -0.359862365369E+02    0.10387E-05   -0.16167E-06  6016   0.728E-03    0.400E-03
DAV:   2    -0.359862363848E+02    0.15211E-06   -0.10481E-06  5064   0.644E-03
   3 F= -.35986236E+02 E0= -.35982215E+02  d E =-.112022E-04
