<?xml version="1.0" encoding="ISO-8859-1"?>
<modeling>
 <generator>
  <i name="program" type="string">vasp </i>
  <i name="version" type="string">5.3.5  </i>
  <i name="subversion" type="string">31Mar14 (build Mar 18 2017 11:34:20) complex                          parallel </i>
  <i name="platform" type="string">LinuxIFC </i>
  <i name="date" type="string">2017 10 27 </i>
  <i name="time" type="string">23:34:01 </i>
 </generator>
 <incar>
  <i type="string" name="SYSTEM"> 2D MoTe2 in a box</i>
  <i type="string" name="PREC">accurate</i>
  <i type="string" name="ALGO"> Normal</i>
  <i type="int" name="NELMDL">    -5</i>
  <i type="int" name="IBRION">     2</i>
  <i name="EDIFF">      0.00000100</i>
  <i type="int" name="NSW">  1000</i>
  <i type="int" name="ISIF">     2</i>
  <i type="int" name="ISYM">     0</i>
  <i name="ENCUT">    350.00000000</i>
  <i name="POTIM">      0.50000000</i>
  <i name="NELECT">     35.98000000</i>
  <i type="logical" name="LREAL"> F  </i>
  <i type="int" name="ISMEAR">    -1</i>
  <i name="SIGMA">      0.04310869</i>
  <i type="int" name="NWRITE">     3</i>
  <i type="logical" name="LWAVE"> F  </i>
  <i type="logical" name="LCHARG"> F  </i>
 </incar>
 <kpoints>
  <generation param="Monkhorst-Pack">
   <v type="int" name="divisions">      18       18        1 </v>
   <v name="usershift">      0.00000000       0.00000000       0.00000000 </v>
   <v name="genvec1">      0.05555556       0.00000000       0.00000000 </v>
   <v name="genvec2">      0.00000000       0.05555556       0.00000000 </v>
   <v name="genvec3">      0.00000000       0.00000000       1.00000000 </v>
   <v name="shift">      0.50000000       0.50000000       0.00000000 </v>
  </generation>
  <varray name="kpointlist" >
   <v>       0.02777778       0.02777778       0.00000000 </v>
   <v>       0.08333333       0.02777778       0.00000000 </v>
   <v>       0.13888889       0.02777778       0.00000000 </v>
   <v>       0.19444444       0.02777778       0.00000000 </v>
   <v>       0.25000000       0.02777778       0.00000000 </v>
   <v>       0.30555556       0.02777778       0.00000000 </v>
   <v>       0.36111111       0.02777778       0.00000000 </v>
   <v>       0.41666667       0.02777778       0.00000000 </v>
   <v>       0.47222222       0.02777778       0.00000000 </v>
   <v>      -0.47222222       0.02777778       0.00000000 </v>
   <v>      -0.41666667       0.02777778       0.00000000 </v>
   <v>      -0.36111111       0.02777778       0.00000000 </v>
   <v>      -0.30555556       0.02777778       0.00000000 </v>
   <v>      -0.25000000       0.02777778       0.00000000 </v>
   <v>      -0.19444444       0.02777778       0.00000000 </v>
   <v>      -0.13888889       0.02777778       0.00000000 </v>
   <v>      -0.08333333       0.02777778       0.00000000 </v>
   <v>      -0.02777778       0.02777778       0.00000000 </v>
   <v>       0.02777778       0.08333333       0.00000000 </v>
   <v>       0.08333333       0.08333333       0.00000000 </v>
   <v>       0.13888889       0.08333333       0.00000000 </v>
   <v>       0.19444444       0.08333333       0.00000000 </v>
   <v>       0.25000000       0.08333333       0.00000000 </v>
   <v>       0.30555556       0.08333333       0.00000000 </v>
   <v>       0.36111111       0.08333333       0.00000000 </v>
   <v>       0.41666667       0.08333333       0.00000000 </v>
   <v>       0.47222222       0.08333333       0.00000000 </v>
   <v>      -0.47222222       0.08333333       0.00000000 </v>
   <v>      -0.41666667       0.08333333       0.00000000 </v>
   <v>      -0.36111111       0.08333333       0.00000000 </v>
   <v>      -0.30555556       0.08333333       0.00000000 </v>
   <v>      -0.25000000       0.08333333       0.00000000 </v>
   <v>      -0.19444444       0.08333333       0.00000000 </v>
   <v>      -0.13888889       0.08333333       0.00000000 </v>
   <v>      -0.08333333       0.08333333       0.00000000 </v>
   <v>      -0.02777778       0.08333333       0.00000000 </v>
   <v>       0.02777778       0.13888889       0.00000000 </v>
   <v>       0.08333333       0.13888889       0.00000000 </v>
   <v>       0.13888889       0.13888889       0.00000000 </v>
   <v>       0.19444444       0.13888889       0.00000000 </v>
   <v>       0.25000000       0.13888889       0.00000000 </v>
   <v>       0.30555556       0.13888889       0.00000000 </v>
   <v>       0.36111111       0.13888889       0.00000000 </v>
   <v>       0.41666667       0.13888889       0.00000000 </v>
   <v>       0.47222222       0.13888889       0.00000000 </v>
   <v>      -0.47222222       0.13888889       0.00000000 </v>
   <v>      -0.41666667       0.13888889       0.00000000 </v>
   <v>      -0.36111111       0.13888889       0.00000000 </v>
   <v>      -0.30555556       0.13888889       0.00000000 </v>
   <v>      -0.25000000       0.13888889       0.00000000 </v>
   <v>      -0.19444444       0.13888889       0.00000000 </v>
   <v>      -0.13888889       0.13888889       0.00000000 </v>
   <v>      -0.08333333       0.13888889       0.00000000 </v>
   <v>      -0.02777778       0.13888889       0.00000000 </v>
   <v>       0.02777778       0.19444444       0.00000000 </v>
   <v>       0.08333333       0.19444444       0.00000000 </v>
   <v>       0.13888889       0.19444444       0.00000000 </v>
   <v>       0.19444444       0.19444444       0.00000000 </v>
   <v>       0.25000000       0.19444444       0.00000000 </v>
   <v>       0.30555556       0.19444444       0.00000000 </v>
   <v>       0.36111111       0.19444444       0.00000000 </v>
   <v>       0.41666667       0.19444444       0.00000000 </v>
   <v>       0.47222222       0.19444444       0.00000000 </v>
   <v>      -0.47222222       0.19444444       0.00000000 </v>
   <v>      -0.41666667       0.19444444       0.00000000 </v>
   <v>      -0.36111111       0.19444444       0.00000000 </v>
   <v>      -0.30555556       0.19444444       0.00000000 </v>
   <v>      -0.25000000       0.19444444       0.00000000 </v>
   <v>      -0.19444444       0.19444444       0.00000000 </v>
   <v>      -0.13888889       0.19444444       0.00000000 </v>
   <v>      -0.08333333       0.19444444       0.00000000 </v>
   <v>      -0.02777778       0.19444444       0.00000000 </v>
   <v>       0.02777778       0.25000000       0.00000000 </v>
   <v>       0.08333333       0.25000000       0.00000000 </v>
   <v>       0.13888889       0.25000000       0.00000000 </v>
   <v>       0.19444444       0.25000000       0.00000000 </v>
   <v>       0.25000000       0.25000000       0.00000000 </v>
   <v>       0.30555556       0.25000000       0.00000000 </v>
   <v>       0.36111111       0.25000000       0.00000000 </v>
   <v>       0.41666667       0.25000000       0.00000000 </v>
   <v>       0.47222222       0.25000000       0.00000000 </v>
   <v>      -0.47222222       0.25000000       0.00000000 </v>
   <v>      -0.41666667       0.25000000       0.00000000 </v>
   <v>      -0.36111111       0.25000000       0.00000000 </v>
   <v>      -0.30555556       0.25000000       0.00000000 </v>
   <v>      -0.25000000       0.25000000       0.00000000 </v>
   <v>      -0.19444444       0.25000000       0.00000000 </v>
   <v>      -0.13888889       0.25000000       0.00000000 </v>
   <v>      -0.08333333       0.25000000       0.00000000 </v>
   <v>      -0.02777778       0.25000000       0.00000000 </v>
   <v>       0.02777778       0.30555556       0.00000000 </v>
   <v>       0.08333333       0.30555556       0.00000000 </v>
   <v>       0.13888889       0.30555556       0.00000000 </v>
   <v>       0.19444444       0.30555556       0.00000000 </v>
   <v>       0.25000000       0.30555556       0.00000000 </v>
   <v>       0.30555556       0.30555556       0.00000000 </v>
   <v>       0.36111111       0.30555556       0.00000000 </v>
   <v>       0.41666667       0.30555556       0.00000000 </v>
   <v>       0.47222222       0.30555556       0.00000000 </v>
   <v>      -0.47222222       0.30555556       0.00000000 </v>
   <v>      -0.41666667       0.30555556       0.00000000 </v>
   <v>      -0.36111111       0.30555556       0.00000000 </v>
   <v>      -0.30555556       0.30555556       0.00000000 </v>
   <v>      -0.25000000       0.30555556       0.00000000 </v>
   <v>      -0.19444444       0.30555556       0.00000000 </v>
   <v>      -0.13888889       0.30555556       0.00000000 </v>
   <v>      -0.08333333       0.30555556       0.00000000 </v>
   <v>      -0.02777778       0.30555556       0.00000000 </v>
   <v>       0.02777778       0.36111111       0.00000000 </v>
   <v>       0.08333333       0.36111111       0.00000000 </v>
   <v>       0.13888889       0.36111111       0.00000000 </v>
   <v>       0.19444444       0.36111111       0.00000000 </v>
   <v>       0.25000000       0.36111111       0.00000000 </v>
   <v>       0.30555556       0.36111111       0.00000000 </v>
   <v>       0.36111111       0.36111111       0.00000000 </v>
   <v>       0.41666667       0.36111111       0.00000000 </v>
   <v>       0.47222222       0.36111111       0.00000000 </v>
   <v>      -0.47222222       0.36111111       0.00000000 </v>
   <v>      -0.41666667       0.36111111       0.00000000 </v>
   <v>      -0.36111111       0.36111111       0.00000000 </v>
   <v>      -0.30555556       0.36111111       0.00000000 </v>
   <v>      -0.25000000       0.36111111       0.00000000 </v>
   <v>      -0.19444444       0.36111111       0.00000000 </v>
   <v>      -0.13888889       0.36111111       0.00000000 </v>
   <v>      -0.08333333       0.36111111       0.00000000 </v>
   <v>      -0.02777778       0.36111111       0.00000000 </v>
   <v>       0.02777778       0.41666667       0.00000000 </v>
   <v>       0.08333333       0.41666667       0.00000000 </v>
   <v>       0.13888889       0.41666667       0.00000000 </v>
   <v>       0.19444444       0.41666667       0.00000000 </v>
   <v>       0.25000000       0.41666667       0.00000000 </v>
   <v>       0.30555556       0.41666667       0.00000000 </v>
   <v>       0.36111111       0.41666667       0.00000000 </v>
   <v>       0.41666667       0.41666667       0.00000000 </v>
   <v>       0.47222222       0.41666667       0.00000000 </v>
   <v>      -0.47222222       0.41666667       0.00000000 </v>
   <v>      -0.41666667       0.41666667       0.00000000 </v>
   <v>      -0.36111111       0.41666667       0.00000000 </v>
   <v>      -0.30555556       0.41666667       0.00000000 </v>
   <v>      -0.25000000       0.41666667       0.00000000 </v>
   <v>      -0.19444444       0.41666667       0.00000000 </v>
   <v>      -0.13888889       0.41666667       0.00000000 </v>
   <v>      -0.08333333       0.41666667       0.00000000 </v>
   <v>      -0.02777778       0.41666667       0.00000000 </v>
   <v>       0.02777778       0.47222222       0.00000000 </v>
   <v>       0.08333333       0.47222222       0.00000000 </v>
   <v>       0.13888889       0.47222222       0.00000000 </v>
   <v>       0.19444444       0.47222222       0.00000000 </v>
   <v>       0.25000000       0.47222222       0.00000000 </v>
   <v>       0.30555556       0.47222222       0.00000000 </v>
   <v>       0.36111111       0.47222222       0.00000000 </v>
   <v>       0.41666667       0.47222222       0.00000000 </v>
   <v>       0.47222222       0.47222222       0.00000000 </v>
   <v>      -0.47222222       0.47222222       0.00000000 </v>
   <v>      -0.41666667       0.47222222       0.00000000 </v>
   <v>      -0.36111111       0.47222222       0.00000000 </v>
   <v>      -0.30555556       0.47222222       0.00000000 </v>
   <v>      -0.25000000       0.47222222       0.00000000 </v>
   <v>      -0.19444444       0.47222222       0.00000000 </v>
   <v>      -0.13888889       0.47222222       0.00000000 </v>
   <v>      -0.08333333       0.47222222       0.00000000 </v>
   <v>      -0.02777778       0.47222222       0.00000000 </v>
  </varray>
  <varray name="weights" >
   <v>       0.00617284 </v>
   <v>       0.00617284 </v>
   <v>       0.00617284 </v>
   <v>       0.00617284 </v>
   <v>       0.00617284 </v>
   <v>       0.00617284 </v>
   <v>       0.00617284 </v>
   <v>       0.00617284 </v>
   <v>       0.00617284 </v>
   <v>       0.00617284 </v>
   <v>       0.00617284 </v>
   <v>       0.00617284 </v>
   <v>       0.00617284 </v>
   <v>       0.00617284 </v>
   <v>       0.00617284 </v>
   <v>       0.00617284 </v>
   <v>       0.00617284 </v>
   <v>       0.00617284 </v>
   <v>       0.00617284 </v>
   <v>       0.00617284 </v>
   <v>       0.00617284 </v>
   <v>       0.00617284 </v>
   <v>       0.00617284 </v>
   <v>       0.00617284 </v>
   <v>       0.00617284 </v>
   <v>       0.00617284 </v>
   <v>       0.00617284 </v>
   <v>       0.00617284 </v>
   <v>       0.00617284 </v>
   <v>       0.00617284 </v>
   <v>       0.00617284 </v>
   <v>       0.00617284 </v>
   <v>       0.00617284 </v>
   <v>       0.00617284 </v>
   <v>       0.00617284 </v>
   <v>       0.00617284 </v>
   <v>       0.00617284 </v>
   <v>       0.00617284 </v>
   <v>       0.00617284 </v>
   <v>       0.00617284 </v>
   <v>       0.00617284 </v>
   <v>       0.00617284 </v>
   <v>       0.00617284 </v>
   <v>       0.00617284 </v>
   <v>       0.00617284 </v>
   <v>       0.00617284 </v>
   <v>       0.00617284 </v>
   <v>       0.00617284 </v>
   <v>       0.00617284 </v>
   <v>       0.00617284 </v>
   <v>       0.00617284 </v>
   <v>       0.00617284 </v>
   <v>       0.00617284 </v>
   <v>       0.00617284 </v>
   <v>       0.00617284 </v>
   <v>       0.00617284 </v>
   <v>       0.00617284 </v>
   <v>       0.00617284 </v>
   <v>       0.00617284 </v>
   <v>       0.00617284 </v>
   <v>       0.00617284 </v>
   <v>       0.00617284 </v>
   <v>       0.00617284 </v>
   <v>       0.00617284 </v>
   <v>       0.00617284 </v>
   <v>       0.00617284 </v>
   <v>       0.00617284 </v>
   <v>       0.00617284 </v>
   <v>       0.00617284 </v>
   <v>       0.00617284 </v>
   <v>       0.00617284 </v>
   <v>       0.00617284 </v>
   <v>       0.00617284 </v>
   <v>       0.00617284 </v>
   <v>       0.00617284 </v>
   <v>       0.00617284 </v>
   <v>       0.00617284 </v>
   <v>       0.00617284 </v>
   <v>       0.00617284 </v>
   <v>       0.00617284 </v>
   <v>       0.00617284 </v>
   <v>       0.00617284 </v>
   <v>       0.00617284 </v>
   <v>       0.00617284 </v>
   <v>       0.00617284 </v>
   <v>       0.00617284 </v>
   <v>       0.00617284 </v>
   <v>       0.00617284 </v>
   <v>       0.00617284 </v>
   <v>       0.00617284 </v>
   <v>       0.00617284 </v>
   <v>       0.00617284 </v>
   <v>       0.00617284 </v>
   <v>       0.00617284 </v>
   <v>       0.00617284 </v>
   <v>       0.00617284 </v>
   <v>       0.00617284 </v>
   <v>       0.00617284 </v>
   <v>       0.00617284 </v>
   <v>       0.00617284 </v>
   <v>       0.00617284 </v>
   <v>       0.00617284 </v>
   <v>       0.00617284 </v>
   <v>       0.00617284 </v>
   <v>       0.00617284 </v>
   <v>       0.00617284 </v>
   <v>       0.00617284 </v>
   <v>       0.00617284 </v>
   <v>       0.00617284 </v>
   <v>       0.00617284 </v>
   <v>       0.00617284 </v>
   <v>       0.00617284 </v>
   <v>       0.00617284 </v>
   <v>       0.00617284 </v>
   <v>       0.00617284 </v>
   <v>       0.00617284 </v>
   <v>       0.00617284 </v>
   <v>       0.00617284 </v>
   <v>       0.00617284 </v>
   <v>       0.00617284 </v>
   <v>       0.00617284 </v>
   <v>       0.00617284 </v>
   <v>       0.00617284 </v>
   <v>       0.00617284 </v>
   <v>       0.00617284 </v>
   <v>       0.00617284 </v>
   <v>       0.00617284 </v>
   <v>       0.00617284 </v>
   <v>       0.00617284 </v>
   <v>       0.00617284 </v>
   <v>       0.00617284 </v>
   <v>       0.00617284 </v>
   <v>       0.00617284 </v>
   <v>       0.00617284 </v>
   <v>       0.00617284 </v>
   <v>       0.00617284 </v>
   <v>       0.00617284 </v>
   <v>       0.00617284 </v>
   <v>       0.00617284 </v>
   <v>       0.00617284 </v>
   <v>       0.00617284 </v>
   <v>       0.00617284 </v>
   <v>       0.00617284 </v>
   <v>       0.00617284 </v>
   <v>       0.00617284 </v>
   <v>       0.00617284 </v>
   <v>       0.00617284 </v>
   <v>       0.00617284 </v>
   <v>       0.00617284 </v>
   <v>       0.00617284 </v>
   <v>       0.00617284 </v>
   <v>       0.00617284 </v>
   <v>       0.00617284 </v>
   <v>       0.00617284 </v>
   <v>       0.00617284 </v>
   <v>       0.00617284 </v>
   <v>       0.00617284 </v>
   <v>       0.00617284 </v>
   <v>       0.00617284 </v>
   <v>       0.00617284 </v>
   <v>       0.00617284 </v>
   <v>       0.00617284 </v>
  </varray>
 </kpoints>
 <parameters>
  <separator name="general" >
   <i type="string" name="SYSTEM">2D MoTe2 in a box</i>
   <i type="logical" name="LCOMPAT"> F  </i>
  </separator>
  <separator name="electronic" >
   <i type="string" name="PREC">accura</i>
   <i name="ENMAX">    350.00000000</i>
   <i name="ENAUG">    368.79200000</i>
   <i name="EDIFF">      0.00000100</i>
   <i type="int" name="IALGO">    38</i>
   <i type="int" name="IWAVPR">    11</i>
   <i type="int" name="NBANDS">    24</i>
   <i name="NELECT">     35.98000000</i>
   <i type="int" name="TURBO">     0</i>
   <i type="int" name="IRESTART">     0</i>
   <i type="int" name="NREBOOT">     0</i>
   <i type="int" name="NMIN">     0</i>
   <i name="EREF">      0.00000000</i>
   <separator name="electronic smearing" >
    <i type="int" name="ISMEAR">    -1</i>
    <i name="SIGMA">      0.04310869</i>
    <i name="KSPACING">      0.50000000</i>
    <i type="logical" name="KGAMMA"> T  </i>
   </separator>
   <separator name="electronic projectors" >
    <i type="logical" name="LREAL"> F  </i>
    <v name="ROPT">      0.00000000      0.00000000</v>
    <i type="int" name="LMAXPAW">  -100</i>
    <i type="int" name="LMAXMIX">     2</i>
    <i type="logical" name="NLSPLINE"> F  </i>
   </separator>
   <separator name="electronic startup" >
    <i type="int" name="ISTART">     0</i>
    <i type="int" name="ICHARG">     2</i>
    <i type="int" name="INIWAV">     1</i>
   </separator>
   <separator name="electronic spin" >
    <i type="int" name="ISPIN">     1</i>
    <i type="logical" name="LNONCOLLINEAR"> F  </i>
    <v name="MAGMOM">      1.00000000      1.00000000      1.00000000      1.00000000      1.00000000      1.00000000</v>
    <i name="NUPDOWN">     -1.00000000</i>
    <i type="logical" name="LSORBIT"> F  </i>
    <v name="SAXIS">      0.00000000      0.00000000      1.00000000</v>
    <i type="logical" name="LSPIRAL"> F  </i>
    <v name="QSPIRAL">      0.00000000      0.00000000      0.00000000</v>
    <i type="logical" name="LZEROZ"> F  </i>
   </separator>
   <separator name="electronic exchange-correlation" >
    <i type="logical" name="LASPH"> F  </i>
    <i type="logical" name="LMETAGGA"> F  </i>
   </separator>
   <separator name="electronic convergence" >
    <i type="int" name="NELM">    60</i>
    <i type="int" name="NELMDL">    -5</i>
    <i type="int" name="NELMIN">     2</i>
    <i name="ENINI">    350.00000000</i>
    <separator name="electronic convergence detail" >
     <i type="logical" name="LDIAG"> T  </i>
     <i type="logical" name="LSUBROT"> F  </i>
     <i name="WEIMIN">      0.00100000</i>
     <i name="EBREAK">      0.00000001</i>
     <i name="DEPER">      0.30000000</i>
     <i type="int" name="NRMM">     4</i>
     <i name="TIME">      0.40000000</i>
    </separator>
   </separator>
   <separator name="electronic mixer" >
    <i name="AMIX">      0.40000000</i>
    <i name="BMIX">      1.00000000</i>
    <i name="AMIN">      0.10000000</i>
    <i name="AMIX_MAG">      1.60000000</i>
    <i name="BMIX_MAG">      1.00000000</i>
    <separator name="electronic mixer details" >
     <i type="int" name="IMIX">     4</i>
     <i type="int" name="MAXMIX">   -45</i>
     <i name="WC">    100.00000000</i>
     <i type="int" name="INIMIX">     1</i>
     <i type="int" name="MIXPRE">     1</i>
     <i type="int" name="MREMOVE">     5</i>
    </separator>
   </separator>
   <separator name="electronic dipolcorrection" >
    <i type="logical" name="LDIPOL"> F  </i>
    <i type="logical" name="LMONO"> F  </i>
    <i type="int" name="IDIPOL">     0</i>
    <i name="EPSILON">      1.00000000</i>
    <v name="DIPOL">   -100.00000000   -100.00000000   -100.00000000</v>
    <i name="EFIELD">      0.00000000</i>
   </separator>
  </separator>
  <separator name="grids" >
   <i type="int" name="NGX">    24</i>
   <i type="int" name="NGY">    40</i>
   <i type="int" name="NGZ">    98</i>
   <i type="int" name="NGXF">    48</i>
   <i type="int" name="NGYF">    80</i>
   <i type="int" name="NGZF">   196</i>
   <i type="logical" name="ADDGRID"> F  </i>
  </separator>
  <separator name="ionic" >
   <i type="int" name="NSW">  1000</i>
   <i type="int" name="IBRION">     2</i>
   <i type="int" name="ISIF">     2</i>
   <i name="PSTRESS">      0.00000000</i>
   <i name="EDIFFG">      0.00001000</i>
   <i type="int" name="NFREE">     1</i>
   <i name="POTIM">      0.50000000</i>
   <i name="SMASS">     -3.00000000</i>
   <i name="SCALEE">      1.00000000</i>
  </separator>
  <separator name="ionic md" >
   <i name="TEBEG">      0.00010000</i>
   <i name="TEEND">      0.00010000</i>
   <i type="int" name="NBLOCK">     1</i>
   <i type="int" name="KBLOCK">  1000</i>
   <i type="int" name="NPACO">   256</i>
   <i name="APACO">     16.00000000</i>
  </separator>
  <separator name="symmetry" >
   <i type="int" name="ISYM">     0</i>
   <i name="SYMPREC">      0.00001000</i>
  </separator>
  <separator name="dos" >
   <i type="logical" name="LORBIT"> F  </i>
   <v name="RWIGS">     -1.00000000     -1.00000000</v>
   <i type="int" name="NEDOS">   301</i>
   <i name="EMIN">     10.00000000</i>
   <i name="EMAX">    -10.00000000</i>
   <i name="EFERMI">      0.00000000</i>
  </separator>
  <separator name="writing" >
   <i type="int" name="NWRITE">     3</i>
   <i type="logical" name="LWAVE"> F  </i>
   <i type="logical" name="LCHARG"> F  </i>
   <i type="logical" name="LPARD"> F  </i>
   <i type="logical" name="LVTOT"> F  </i>
   <i type="logical" name="LVHAR"> F  </i>
   <i type="logical" name="LELF"> F  </i>
   <i type="logical" name="LOPTICS"> F  </i>
   <v name="STM">      0.00000000      0.00000000      0.00000000      0.00000000      0.00000000      0.00000000      0.00000000</v>
  </separator>
  <separator name="performance" >
   <i type="int" name="NPAR">     8</i>
   <i type="int" name="NSIM">     4</i>
   <i type="int" name="NBLK">    -1</i>
   <i type="logical" name="LPLANE"> T  </i>
   <i type="logical" name="LSCALAPACK"> T  </i>
   <i type="logical" name="LSCAAWARE"> F  </i>
   <i type="logical" name="LSCALU"> F  </i>
   <i type="logical" name="LASYNC"> F  </i>
   <i type="logical" name="LORBITALREAL"> F  </i>
  </separator>
  <separator name="miscellaneous" >
   <i type="int" name="IDIOT">     3</i>
   <i type="logical" name="LMUSIC"> F  </i>
   <v name="POMASS">    127.60000000     95.94000000</v>
   <v name="DARWINR">      0.00000000      0.00000000</v>
   <v name="DARWINV">      1.00000000      1.00000000</v>
   <i type="logical" name="LCORR"> T  </i>
  </separator>
  <i type="logical" name="GGA_COMPAT"> T  </i>
  <i type="logical" name="LBERRY"> F  </i>
  <i type="int" name="ICORELEVEL">     0</i>
  <i type="logical" name="LDAU"> F  </i>
  <i type="int" name="I_CONSTRAINED_M">     0</i>
  <separator name="electronic exchange-correlation" >
   <i type="string" name="GGA">--</i>
   <i type="int" name="VOSKOWN">     0</i>
   <i type="logical" name="LHFCALC"> F  </i>
   <i type="string" name="PRECFOCK"></i>
   <i type="logical" name="LSYMGRAD"> F  </i>
   <i type="logical" name="LHFONE"> F  </i>
   <i type="logical" name="LRHFCALC"> F  </i>
   <i type="logical" name="LTHOMAS"> F  </i>
   <i type="logical" name="LMODELHF"> F  </i>
   <i name="ENCUT4O">     -1.00000000</i>
   <i type="int" name="EXXOEP">     0</i>
   <i type="int" name="FOURORBIT">     0</i>
   <i name="AEXX">      0.00000000</i>
   <i name="HFALPHA">      0.00000000</i>
   <i name="MCALPHA">      0.00000000</i>
   <i name="ALDAX">      1.00000000</i>
   <i name="AGGAX">      1.00000000</i>
   <i name="ALDAC">      1.00000000</i>
   <i name="AGGAC">      1.00000000</i>
   <i type="int" name="NKREDX">     1</i>
   <i type="int" name="NKREDY">     1</i>
   <i type="int" name="NKREDZ">     1</i>
   <i type="logical" name="SHIFTRED"> F  </i>
   <i type="logical" name="ODDONLY"> F  </i>
   <i type="logical" name="EVENONLY"> F  </i>
   <i type="int" name="LMAXFOCK">     0</i>
   <i type="int" name="NMAXFOCKAE">     0</i>
   <i type="logical" name="LFOCKAEDFT"> F  </i>
   <i name="HFSCREEN">      0.00000000</i>
   <i name="HFSCREENC">      0.00000000</i>
   <i type="int" name="NBANDSGWLOW">     0</i>
  </separator>
  <separator name="vdW DFT" >
   <i type="logical" name="LUSE_VDW"> F  </i>
   <i name="Zab_VDW">     -0.84910000</i>
   <i name="PARAM1">      0.12340000</i>
   <i name="PARAM2">      1.00000000</i>
   <i name="PARAM3">      0.00000000</i>
  </separator>
  <separator name="model GW" >
   <i type="int" name="MODEL_GW">     0</i>
   <i name="MODEL_EPS0">     35.17173760</i>
   <i name="MODEL_ALPHA">      1.00000000</i>
  </separator>
  <separator name="linear response parameters" >
   <i type="logical" name="LEPSILON"> F  </i>
   <i type="logical" name="LRPA"> F  </i>
   <i type="logical" name="LNABLA"> F  </i>
   <i type="logical" name="LVEL"> F  </i>
   <i type="int" name="KINTER">     0</i>
   <i name="CSHIFT">      0.10000000</i>
   <i name="OMEGAMAX">     -1.00000000</i>
   <i name="DEG_THRESHOLD">      0.00200000</i>
  </separator>
  <separator name="orbital magnetization" >
   <i type="logical" name="NUCIND"> F  </i>
   <v name="MAGPOS">      0.00000000      0.00000000      0.00000000</v>
   <i type="logical" name="LNICSALL"> T  </i>
   <i type="logical" name="ORBITALMAG"> F  </i>
   <i type="logical" name="LMAGBLOCH"> F  </i>
   <i type="logical" name="LCHIMAG"> F  </i>
   <i type="logical" name="LGAUGE"> T  </i>
   <i type="int" name="MAGATOM">     0</i>
   <v name="MAGDIPOL">      0.00000000      0.00000000      0.00000000</v>
   <v name="AVECCONST">      0.00000000      0.00000000      0.00000000</v>
  </separator>
  <separator name="response functions" >
   <i type="logical" name="LADDER"> F  </i>
   <i type="logical" name="LFXC"> F  </i>
   <i type="logical" name="LHARTREE"> T  </i>
   <i type="int" name="IBSE">     0</i>
   <i type="logical" name="LTCTE"> F  </i>
   <i type="logical" name="LTETE"> F  </i>
   <i type="logical" name="LTRIPLET"> F  </i>
   <i type="logical" name="LFXCEPS"> F  </i>
   <i type="logical" name="LFXHEG"> F  </i>
   <i type="logical" name="L2ORDER"> F  </i>
   <i type="logical" name="LUSEW"> F  </i>
   <i name="ENCUTGW">     -2.00000000</i>
   <i name="ENCUTGWSOFT">     -2.00000000</i>
   <i name="ENCUTLF">     -1.00000000</i>
   <i type="int" name="LMAXMP2">    -1</i>
   <i name="SCISSOR">      0.00000000</i>
   <i type="int" name="NOMEGA">     0</i>
   <i type="int" name="NOMEGAR">     0</i>
   <i type="int" name="NBANDSGW">    -1</i>
   <i type="int" name="NBANDSO">    -1</i>
   <i type="int" name="NBANDSV">    -1</i>
   <i type="int" name="NELM">     1</i>
   <i type="int" name="DIM">     3</i>
   <i type="int" name="ANTIRES">     0</i>
   <i name="OMEGAMAX">    -30.00000000</i>
   <i name="OMEGAMIN">    -30.00000000</i>
   <i name="OMEGATL">   -200.00000000</i>
   <i type="int" name="OMEGAGRID">     0</i>
   <i name="CSHIFT">     -0.10000000</i>
   <i type="logical" name="SELFENERGY"> F  </i>
   <i type="logical" name="LSPECTRAL"> F  </i>
   <i type="logical" name="ODDONLYGW"> F  </i>
   <i type="logical" name="EVENONLYGW"> F  </i>
   <i type="int" name="NKREDLFX">     1</i>
   <i type="int" name="NKREDLFY">     1</i>
   <i type="int" name="NKREDLFZ">     1</i>
   <i type="int" name="MAXMEM">  1800</i>
   <i type="int" name="TELESCOPE">     0</i>
   <i type="int" name="TAUPAR">     1</i>
  </separator>
  <separator name="External order field" >
   <i name="OFIELD_KAPPA">      0.00000000</i>
   <v name="OFIELD_K">      0.00000000      0.00000000      0.00000000</v>
   <i name="OFIELD_Q6_NEAR">      0.00000000</i>
   <i name="OFIELD_Q6_FAR">      0.00000000</i>
   <i name="OFIELD_A">      0.00000000</i>
  </separator>
 </parameters>
 <atominfo>
  <atoms>       6 </atoms>
  <types>       2 </types>
  <array name="atoms" >
   <dimension dim="1">ion</dimension>
   <field type="string">element</field>
   <field type="int">atomtype</field>
   <set>
    <rc><c>Te</c><c>   1</c></rc>
    <rc><c>Te</c><c>   1</c></rc>
    <rc><c>Te</c><c>   1</c></rc>
    <rc><c>Te</c><c>   1</c></rc>
    <rc><c>Mo</c><c>   2</c></rc>
    <rc><c>Mo</c><c>   2</c></rc>
   </set>
  </array>
  <array name="atomtypes" >
   <dimension dim="1">type</dimension>
   <field type="int">atomspertype</field>
   <field type="string">element</field>
   <field>mass</field>
   <field>valence</field>
   <field type="string">pseudopotential</field>
   <set>
    <rc><c>   4</c><c>Te</c><c>    127.60000000</c><c>      6.00000000</c><c>  PAW_PBE Te 08Apr2002                  </c></rc>
    <rc><c>   2</c><c>Mo</c><c>     95.94000000</c><c>      6.00000000</c><c>  PAW_PBE Mo 08Apr2002                  </c></rc>
   </set>
  </array>
 </atominfo>
 <structure name="initialpos" >
  <crystal>
   <varray name="basis" >
    <v>       3.45200000       0.00000000       0.00000000 </v>
    <v>       0.00000000       6.36800000       0.00000000 </v>
    <v>       0.00000000       0.00000000      16.00000000 </v>
   </varray>
   <i name="volume">    351.71737600 </i>
   <varray name="rec_basis" >
    <v>       0.28968714       0.00000000       0.00000000 </v>
    <v>       0.00000000       0.15703518       0.00000000 </v>
    <v>       0.00000000       0.00000000       0.06250000 </v>
   </varray>
  </crystal>
  <varray name="positions" >
   <v>       0.50000000       0.10163317       0.12913313 </v>
   <v>       0.50000000       0.74915672       0.90758437 </v>
   <v>       0.00000000       0.25741049       0.87086563 </v>
   <v>       0.00000000       0.60988065       0.09241625 </v>
   <v>       0.50000000       0.36059673       0.99406750 </v>
   <v>       0.00000000       0.99843907       0.00593312 </v>
  </varray>
 </structure>
 <calculation>
  <scstep>
   <time name="dav">    3.11    3.11</time>
   <time name="total">    3.15    3.16</time>
   <energy>
    <i name="alphaZ">     25.19170377 </i>
    <i name="ewald">   1706.63235767 </i>
    <i name="hartreedc">  -2986.48471468 </i>
    <i name="XCdc">   -233.78894118 </i>
    <i name="pawpsdc">   1362.14282323 </i>
    <i name="pawaedc">  -1065.87210056 </i>
    <i name="eentropy">     -0.02145029 </i>
    <i name="bandstr">     50.11408089 </i>
    <i name="atom">   1328.10454569 </i>
    <i name="e_fr_energy">    186.01830454 </i>
    <i name="e_wo_entrp">    186.03975482 </i>
    <i name="e_0_energy">    186.02902968 </i>
   </energy>
  </scstep>
  <scstep>
   <time name="dav">    3.96    3.96</time>
   <time name="total">    4.01    4.01</time>
   <energy>
    <i name="e_fr_energy">    -18.22694067 </i>
    <i name="e_wo_entrp">    -18.22038293 </i>
    <i name="e_0_energy">    -18.22366180 </i>
   </energy>
  </scstep>
  <scstep>
   <time name="dav">    3.66    3.66</time>
   <time name="total">    3.71    3.71</time>
   <energy>
    <i name="e_fr_energy">    -36.74210387 </i>
    <i name="e_wo_entrp">    -36.73552739 </i>
    <i name="e_0_energy">    -36.73881563 </i>
   </energy>
  </scstep>
  <scstep>
   <time name="dav">    4.03    4.03</time>
   <time name="total">    4.08    4.08</time>
   <energy>
    <i name="e_fr_energy">    -37.41023863 </i>
    <i name="e_wo_entrp">    -37.40373005 </i>
    <i name="e_0_energy">    -37.40698434 </i>
   </energy>
  </scstep>
  <scstep>
   <time name="dav">    3.77    3.77</time>
   <time name="total">    3.93    3.93</time>
   <energy>
    <i name="e_fr_energy">    -37.42059090 </i>
    <i name="e_wo_entrp">    -37.41408321 </i>
    <i name="e_0_energy">    -37.41733705 </i>
   </energy>
  </scstep>
  <scstep>
   <time name="dav">    3.77    3.77</time>
   <time name="total">    3.97    3.97</time>
   <energy>
    <i name="e_fr_energy">    -36.48341412 </i>
    <i name="e_wo_entrp">    -36.47479853 </i>
    <i name="e_0_energy">    -36.47910633 </i>
   </energy>
  </scstep>
  <scstep>
   <time name="dav">    3.49    3.49</time>
   <time name="total">    3.68    3.68</time>
   <energy>
    <i name="e_fr_energy">    -36.51039380 </i>
    <i name="e_wo_entrp">    -36.50208688 </i>
    <i name="e_0_energy">    -36.50624034 </i>
   </energy>
  </scstep>
  <scstep>
   <time name="dav">    3.59    3.61</time>
   <time name="total">    3.78    3.81</time>
   <energy>
    <i name="e_fr_energy">    -36.00237238 </i>
    <i name="e_wo_entrp">    -35.99465357 </i>
    <i name="e_0_energy">    -35.99851297 </i>
   </energy>
  </scstep>
  <scstep>
   <time name="dav">    3.91    3.91</time>
   <time name="total">    4.11    4.11</time>
   <energy>
    <i name="e_fr_energy">    -35.99409552 </i>
    <i name="e_wo_entrp">    -35.98591190 </i>
    <i name="e_0_energy">    -35.99000371 </i>
   </energy>
  </scstep>
  <scstep>
   <time name="dav">    3.56    3.56</time>
   <time name="total">    3.75    3.75</time>
   <energy>
    <i name="e_fr_energy">    -35.98815834 </i>
    <i name="e_wo_entrp">    -35.98018540 </i>
    <i name="e_0_energy">    -35.98417187 </i>
   </energy>
  </scstep>
  <scstep>
   <time name="dav">    3.84    3.84</time>
   <time name="total">    4.04    4.04</time>
   <energy>
    <i name="e_fr_energy">    -35.98692595 </i>
    <i name="e_wo_entrp">    -35.97886158 </i>
    <i name="e_0_energy">    -35.98289376 </i>
   </energy>
  </scstep>
  <scstep>
   <time name="dav">    3.81    3.81</time>
   <time name="total">    4.02    4.02</time>
   <energy>
    <i name="e_fr_energy">    -35.98638351 </i>
    <i name="e_wo_entrp">    -35.97836591 </i>
    <i name="e_0_energy">    -35.98237471 </i>
   </energy>
  </scstep>
  <scstep>
   <time name="dav">    3.82    3.82</time>
   <time name="total">    4.01    4.02</time>
   <energy>
    <i name="e_fr_energy">    -35.98622664 </i>
    <i name="e_wo_entrp">    -35.97822539 </i>
    <i name="e_0_energy">    -35.98222602 </i>
   </energy>
  </scstep>
  <scstep>
   <time name="dav">    3.47    3.47</time>
   <time name="total">    3.66    3.67</time>
   <energy>
    <i name="e_fr_energy">    -35.98600859 </i>
    <i name="e_wo_entrp">    -35.97799752 </i>
    <i name="e_0_energy">    -35.98200305 </i>
   </energy>
  </scstep>
  <scstep>
   <time name="dav">    3.44    3.43</time>
   <time name="total">    3.63    3.63</time>
   <energy>
    <i name="e_fr_energy">    -35.98575558 </i>
    <i name="e_wo_entrp">    -35.97772949 </i>
    <i name="e_0_energy">    -35.98174253 </i>
   </energy>
  </scstep>
  <scstep>
   <time name="dav">    3.88    3.89</time>
   <time name="total">    4.07    4.10</time>
   <energy>
    <i name="e_fr_energy">    -35.98579407 </i>
    <i name="e_wo_entrp">    -35.97776684 </i>
    <i name="e_0_energy">    -35.98178045 </i>
   </energy>
  </scstep>
  <scstep>
   <time name="dav">    3.70    3.70</time>
   <time name="total">    3.90    3.90</time>
   <energy>
    <i name="e_fr_energy">    -35.98594995 </i>
    <i name="e_wo_entrp">    -35.97792821 </i>
    <i name="e_0_energy">    -35.98193908 </i>
   </energy>
  </scstep>
  <scstep>
   <time name="dav">    3.44    3.44</time>
   <time name="total">    3.64    3.64</time>
   <energy>
    <i name="e_fr_energy">    -35.98607096 </i>
    <i name="e_wo_entrp">    -35.97804908 </i>
    <i name="e_0_energy">    -35.98206002 </i>
   </energy>
  </scstep>
  <scstep>
   <time name="dav">    3.39    3.39</time>
   <time name="total">    3.59    3.59</time>
   <energy>
    <i name="e_fr_energy">    -35.98614638 </i>
    <i name="e_wo_entrp">    -35.97812427 </i>
    <i name="e_0_energy">    -35.98213532 </i>
   </energy>
  </scstep>
  <scstep>
   <time name="dav">    2.94    2.94</time>
   <time name="total">    3.14    3.14</time>
   <energy>
    <i name="e_fr_energy">    -35.98620263 </i>
    <i name="e_wo_entrp">    -35.97817980 </i>
    <i name="e_0_energy">    -35.98219121 </i>
   </energy>
  </scstep>
  <scstep>
   <time name="dav">    2.75    2.75</time>
   <time name="total">    2.95    2.95</time>
   <energy>
    <i name="e_fr_energy">    -35.98621708 </i>
    <i name="e_wo_entrp">    -35.97819460 </i>
    <i name="e_0_energy">    -35.98220584 </i>
   </energy>
  </scstep>
  <scstep>
   <time name="dav">    2.74    2.74</time>
   <time name="total">    2.94    2.94</time>
   <energy>
    <i name="e_fr_energy">    -35.98622383 </i>
    <i name="e_wo_entrp">    -35.97820138 </i>
    <i name="e_0_energy">    -35.98221260 </i>
   </energy>
  </scstep>
  <scstep>
   <time name="dav">    2.74    2.74</time>
   <time name="total">    2.94    2.94</time>
   <energy>
    <i name="e_fr_energy">    -35.98622508 </i>
    <i name="e_wo_entrp">    -35.97820231 </i>
    <i name="e_0_energy">    -35.98221370 </i>
   </energy>
  </scstep>
  <scstep>
   <time name="dav">    2.55    2.55</time>
   <time name="total">    2.63    2.63</time>
   <energy>
    <i name="alphaZ">     25.19170377 </i>
    <i name="ewald">   1706.63235767 </i>
    <i name="hartreedc">  -3004.07936998 </i>
    <i name="XCdc">   -232.33228029 </i>
    <i name="pawpsdc">   2699.54374271 </i>
    <i name="pawaedc">  -2405.98800542 </i>
    <i name="eentropy">     -0.00802278 </i>
    <i name="bandstr">   -153.05089655 </i>
    <i name="atom">   1328.10454569 </i>
    <i name="e_fr_energy">    -35.98622518 </i>
    <i name="e_wo_entrp">    -35.97820241 </i>
    <i name="e_0_energy">    -35.98221379 </i>
   </energy>
  </scstep>
  <structure>
   <crystal>
    <varray name="basis" >
     <v>       3.45200000       0.00000000       0.00000000 </v>
     <v>       0.00000000       6.36800000       0.00000000 </v>
     <v>       0.00000000       0.00000000      16.00000000 </v>
    </varray>
    <i name="volume">    351.71737600 </i>
    <varray name="rec_basis" >
     <v>       0.28968714       0.00000000       0.00000000 </v>
     <v>       0.00000000       0.15703518       0.00000000 </v>
     <v>       0.00000000       0.00000000       0.06250000 </v>
    </varray>
   </crystal>
   <varray name="positions" >
    <v>       0.50000000       0.10163317       0.12913313 </v>
    <v>       0.50000000       0.74915672       0.90758437 </v>
    <v>       0.00000000       0.25741049       0.87086563 </v>
    <v>       0.00000000       0.60988065       0.09241625 </v>
    <v>       0.50000000       0.36059673       0.99406750 </v>
    <v>       0.00000000       0.99843907       0.00593312 </v>
   </varray>
  </structure>
  <varray name="forces" >
   <v>       0.00000001      -0.00533836       0.00861696 </v>
   <v>      -0.00000000      -0.00060746      -0.00353460 </v>
   <v>       0.00000001       0.00503838      -0.00827519 </v>
   <v>      -0.00000001       0.00062494       0.00358408 </v>
   <v>       0.00000001       0.01107923      -0.00661188 </v>
   <v>      -0.00000002      -0.01079673       0.00622063 </v>
  </varray>
  <varray name="stress" >
   <v>      -1.32858318       0.00000036       0.00000153 </v>
   <v>       0.00000026      -0.67940136      -0.09300323 </v>
   <v>       0.00000163      -0.09300328      -0.75837720 </v>
  </varray>
  <energy>
   <i name="e_fr_energy">    -35.98622518 </i>
   <i name="e_wo_entrp">    -35.98221379 </i>
   <i name="e_0_energy">     -0.00802278 </i>
  </energy>
  <time name="totalsc">   89.07   89.18</time>
 </calculation>
 <calculation>
  <scstep>
   <time name="dav">    3.03    3.03</time>
   <time name="total">    3.18    3.19</time>
   <energy>
    <i name="alphaZ">     25.19170377 </i>
    <i name="ewald">   1706.13588055 </i>
    <i name="hartreedc">  -3003.60312148 </i>
    <i name="XCdc">   -232.33483239 </i>
    <i name="pawpsdc">   2699.53871868 </i>
    <i name="pawaedc">  -2405.98300041 </i>
    <i name="eentropy">     -0.00804230 </i>
    <i name="bandstr">   -153.02808823 </i>
    <i name="atom">   1328.10454569 </i>
    <i name="e_fr_energy">    -35.98623612 </i>
    <i name="e_wo_entrp">    -35.97819382 </i>
    <i name="e_0_energy">    -35.98221497 </i>
   </energy>
  </scstep>
  <scstep>
   <time name="dav">    3.60    3.60</time>
   <time name="total">    3.80    3.80</time>
   <energy>
    <i name="e_fr_energy">    -35.98623758 </i>
    <i name="e_wo_entrp">    -35.97819326 </i>
    <i name="e_0_energy">    -35.98221542 </i>
   </energy>
  </scstep>
  <scstep>
   <time name="dav">    2.78    2.78</time>
   <time name="total">    2.86    2.87</time>
   <energy>
    <i name="alphaZ">     25.19170377 </i>
    <i name="ewald">   1706.13588055 </i>
    <i name="hartreedc">  -3003.60117966 </i>
    <i name="XCdc">   -232.33468600 </i>
    <i name="pawpsdc">   2699.01320225 </i>
    <i name="pawaedc">  -2405.45637125 </i>
    <i name="eentropy">     -0.00804291 </i>
    <i name="bandstr">   -153.03128939 </i>
    <i name="atom">   1328.10454569 </i>
    <i name="e_fr_energy">    -35.98623696 </i>
    <i name="e_wo_entrp">    -35.97819404 </i>
    <i name="e_0_energy">    -35.98221550 </i>
   </energy>
  </scstep>
  <structure>
   <crystal>
    <varray name="basis" >
     <v>       3.45200000       0.00000000       0.00000000 </v>
     <v>       0.00000000       6.36800000       0.00000000 </v>
     <v>       0.00000000       0.00000000      16.00000000 </v>
    </varray>
    <i name="volume">    351.71737600 </i>
    <varray name="rec_basis" >
     <v>       0.28968714       0.00000000       0.00000000 </v>
     <v>       0.00000000       0.15703518       0.00000000 </v>
     <v>       0.00000000       0.00000000       0.06250000 </v>
    </varray>
   </crystal>
   <varray name="positions" >
    <v>       0.50000000       0.10159272       0.12915911 </v>
    <v>       0.50000000       0.74915212       0.90757372 </v>
    <v>       0.00000000       0.25744866       0.87084067 </v>
    <v>      -0.00000000       0.60988539       0.09242706 </v>
    <v>       0.50000000       0.36068067       0.99404756 </v>
    <v>      -0.00000000       0.99835728       0.00595188 </v>
   </varray>
  </structure>
  <varray name="forces" >
   <v>      -0.00000020      -0.00123217       0.00105430 </v>
   <v>       0.00000024       0.00144191      -0.00240814 </v>
   <v>       0.00000010       0.00105371      -0.00117770 </v>
   <v>       0.00000000      -0.00137687       0.00234271 </v>
   <v>      -0.00000026      -0.00126336       0.00207478 </v>
   <v>       0.00000012       0.00137678      -0.00188595 </v>
  </varray>
  <varray name="stress" >
   <v>      -1.38546996       0.00000048      -0.00000096 </v>
   <v>       0.00000033      -0.73828718      -0.03726702 </v>
   <v>      -0.00000106      -0.03726707      -0.92703098 </v>
  </varray>
  <energy>
   <i name="e_fr_energy">    -35.98623696 </i>
   <i name="e_wo_entrp">    -35.98221550 </i>
   <i name="e_0_energy">     -0.00804291 </i>
  </energy>
  <time name="totalsc">   11.58   11.59</time>
 </calculation>
 <calculation>
  <scstep>
   <time name="dav">    2.68    2.68</time>
   <time name="total">    2.83    2.84</time>
   <energy>
    <i name="alphaZ">     25.19170377 </i>
    <i name="ewald">   1706.14344252 </i>
    <i name="hartreedc">  -3003.60552691 </i>
    <i name="XCdc">   -232.33449428 </i>
    <i name="pawpsdc">   2698.92736232 </i>
    <i name="pawaedc">  -2405.37007999 </i>
    <i name="eentropy">     -0.00804363 </i>
    <i name="bandstr">   -153.03514602 </i>
    <i name="atom">   1328.10454569 </i>
    <i name="e_fr_energy">    -35.98623654 </i>
    <i name="e_wo_entrp">    -35.97819291 </i>
    <i name="e_0_energy">    -35.98221472 </i>
   </energy>
  </scstep>
  <scstep>
   <time name="dav">    2.54    2.54</time>
   <time name="total">    2.63    2.63</time>
   <energy>
    <i name="alphaZ">     25.19170377 </i>
    <i name="ewald">   1706.14344252 </i>
    <i name="hartreedc">  -3003.61142154 </i>
    <i name="XCdc">   -232.33464562 </i>
    <i name="pawpsdc">   2698.90575382 </i>
    <i name="pawaedc">  -2405.34838600 </i>
    <i name="eentropy">     -0.00804213 </i>
    <i name="bandstr">   -153.02918689 </i>
    <i name="atom">   1328.10454569 </i>
    <i name="e_fr_energy">    -35.98623638 </i>
    <i name="e_wo_entrp">    -35.97819426 </i>
    <i name="e_0_energy">    -35.98221532 </i>
   </energy>
  </scstep>
  <structure>
   <crystal>
    <varray name="basis" >
     <v>       3.45200000       0.00000000       0.00000000 </v>
     <v>       0.00000000       6.36800000       0.00000000 </v>
     <v>       0.00000000       0.00000000      16.00000000 </v>
    </varray>
    <i name="volume">    351.71737600 </i>
    <varray name="rec_basis" >
     <v>       0.28968714       0.00000000       0.00000000 </v>
     <v>       0.00000000       0.15703518       0.00000000 </v>
     <v>       0.00000000       0.00000000       0.06250000 </v>
    </varray>
   </crystal>
   <varray name="positions" >
    <v>       0.50000000       0.10159334       0.12915871 </v>
    <v>       0.50000000       0.74915219       0.90757388 </v>
    <v>       0.00000000       0.25744808       0.87084105 </v>
    <v>      -0.00000000       0.60988532       0.09242689 </v>
    <v>       0.50000000       0.36067939       0.99404787 </v>
    <v>      -0.00000000       0.99835852       0.00595160 </v>
   </varray>
  </structure>
  <varray name="forces" >
   <v>      -0.00000017      -0.00134253       0.00128372 </v>
   <v>      -0.00000002       0.00132159      -0.00237841 </v>
   <v>       0.00000001       0.00119238      -0.00136076 </v>
   <v>       0.00000015      -0.00133138       0.00227444 </v>
   <v>       0.00000029      -0.00106096       0.00207739 </v>
   <v>      -0.00000026       0.00122090      -0.00189638 </v>
  </varray>
  <varray name="stress" >
   <v>      -1.37928725       0.00000072      -0.00000281 </v>
   <v>       0.00000079      -0.73706041      -0.03518697 </v>
   <v>      -0.00000278      -0.03518704      -0.93309373 </v>
  </varray>
  <energy>
   <i name="e_fr_energy">    -35.98623638 </i>
   <i name="e_wo_entrp">    -35.98221532 </i>
   <i name="e_0_energy">     -0.00804213 </i>
  </energy>
  <time name="totalsc">    6.96    6.97</time>
  <eigenvalues>
   <array>
    <dimension dim="1">band</dimension>
    <dimension dim="2">kpoint</dimension>
    <dimension dim="3">spin</dimension>
    <field>eigene</field>
    <field>occ</field>
    <set>
     <set comment="spin 1">
      <set comment="kpoint 1">
       <r>  -12.4622    1.0000 </r>
       <r>  -11.5620    1.0000 </r>
       <r>  -10.7546    1.0000 </r>
       <r>  -10.4933    1.0000 </r>
       <r>   -5.2406    1.0000 </r>
       <r>   -4.5674    1.0000 </r>
       <r>   -4.3079    1.0000 </r>
       <r>   -3.5552    1.0000 </r>
       <r>   -2.4299    1.0000 </r>
       <r>   -2.0177    1.0000 </r>
       <r>   -1.9599    1.0000 </r>
       <r>   -1.6510    1.0000 </r>
       <r>   -1.3165    1.0000 </r>
       <r>   -0.9543    1.0000 </r>
       <r>   -0.6763    1.0000 </r>
       <r>   -0.2186    1.0000 </r>
       <r>   -0.0004    0.9999 </r>
       <r>    0.5948    0.0103 </r>
       <r>    0.9011    0.0000 </r>
       <r>    1.5194    0.0000 </r>
       <r>    2.0364    0.0000 </r>
       <r>    2.4264    0.0000 </r>
       <r>    2.6224    0.0000 </r>
       <r>    3.5263    0.0000 </r>
      </set>
      <set comment="kpoint 2">
       <r>  -12.3931    1.0000 </r>
       <r>  -11.5152    1.0000 </r>
       <r>  -10.7188    1.0000 </r>
       <r>  -10.4473    1.0000 </r>
       <r>   -5.1684    1.0000 </r>
       <r>   -4.4887    1.0000 </r>
       <r>   -4.2785    1.0000 </r>
       <r>   -3.5236    1.0000 </r>
       <r>   -2.4694    1.0000 </r>
       <r>   -2.1748    1.0000 </r>
       <r>   -2.0535    1.0000 </r>
       <r>   -1.7102    1.0000 </r>
       <r>   -1.3151    1.0000 </r>
       <r>   -0.9130    1.0000 </r>
       <r>   -0.7095    1.0000 </r>
       <r>   -0.3901    1.0000 </r>
       <r>   -0.0051    0.9999 </r>
       <r>    0.4430    0.2606 </r>
       <r>    0.5864    0.0125 </r>
       <r>    1.6652    0.0000 </r>
       <r>    2.1427    0.0000 </r>
       <r>    2.3653    0.0000 </r>
       <r>    2.4340    0.0000 </r>
       <r>    3.1157    0.0000 </r>
      </set>
      <set comment="kpoint 3">
       <r>  -12.2565    1.0000 </r>
       <r>  -11.4237    1.0000 </r>
       <r>  -10.6506    1.0000 </r>
       <r>  -10.3601    1.0000 </r>
       <r>   -5.0298    1.0000 </r>
       <r>   -4.3528    1.0000 </r>
       <r>   -4.2147    1.0000 </r>
       <r>   -3.4738    1.0000 </r>
       <r>   -2.5489    1.0000 </r>
       <r>   -2.4580    1.0000 </r>
       <r>   -2.1218    1.0000 </r>
       <r>   -1.9405    1.0000 </r>
       <r>   -1.3457    1.0000 </r>
       <r>   -1.0272    1.0000 </r>
       <r>   -0.8042    1.0000 </r>
       <r>   -0.5247    1.0000 </r>
       <r>   -0.0129    0.9999 </r>
       <r>    0.0892    0.9992 </r>
       <r>    0.3618    0.6988 </r>
       <r>    1.6350    0.0000 </r>
       <r>    2.1995    0.0000 </r>
       <r>    2.3001    0.0000 </r>
       <r>    2.4096    0.0000 </r>
       <r>    2.5689    0.0000 </r>
      </set>
      <set comment="kpoint 4">
       <r>  -12.0564    1.0000 </r>
       <r>  -11.2920    1.0000 </r>
       <r>  -10.5573    1.0000 </r>
       <r>  -10.2422    1.0000 </r>
       <r>   -4.8387    1.0000 </r>
       <r>   -4.2641    1.0000 </r>
       <r>   -4.0456    1.0000 </r>
       <r>   -3.4320    1.0000 </r>
       <r>   -2.8479    1.0000 </r>
       <r>   -2.6233    1.0000 </r>
       <r>   -2.3077    1.0000 </r>
       <r>   -2.2065    1.0000 </r>
       <r>   -1.3922    1.0000 </r>
       <r>   -1.2280    1.0000 </r>
       <r>   -1.0791    1.0000 </r>
       <r>   -0.7080    1.0000 </r>
       <r>   -0.3299    1.0000 </r>
       <r>    0.0091    0.9999 </r>
       <r>    0.3532    0.7390 </r>
       <r>    1.4603    0.0000 </r>
       <r>    2.1006    0.0000 </r>
       <r>    2.2163    0.0000 </r>
       <r>    2.3919    0.0000 </r>
       <r>    2.4195    0.0000 </r>
      </set>
      <set comment="kpoint 5">
       <r>  -11.7991    1.0000 </r>
       <r>  -11.1275    1.0000 </r>
       <r>  -10.4503    1.0000 </r>
       <r>  -10.1122    1.0000 </r>
       <r>   -4.6233    1.0000 </r>
       <r>   -4.2647    1.0000 </r>
       <r>   -3.7793    1.0000 </r>
       <r>   -3.4772    1.0000 </r>
       <r>   -3.3105    1.0000 </r>
       <r>   -2.6615    1.0000 </r>
       <r>   -2.5184    1.0000 </r>
       <r>   -2.4262    1.0000 </r>
       <r>   -1.7025    1.0000 </r>
       <r>   -1.4163    1.0000 </r>
       <r>   -1.3500    1.0000 </r>
       <r>   -0.9840    1.0000 </r>
       <r>   -0.5422    1.0000 </r>
       <r>   -0.0425    1.0000 </r>
       <r>    0.4999    0.0860 </r>
       <r>    1.3496    0.0000 </r>
       <r>    1.8317    0.0000 </r>
       <r>    2.2408    0.0000 </r>
       <r>    2.3615    0.0000 </r>
       <r>    2.5095    0.0000 </r>
      </set>
      <set comment="kpoint 6">
       <r>  -11.4948    1.0000 </r>
       <r>  -10.9414    1.0000 </r>
       <r>  -10.3457    1.0000 </r>
       <r>   -9.9990    1.0000 </r>
       <r>   -4.4435    1.0000 </r>
       <r>   -4.3172    1.0000 </r>
       <r>   -3.9644    1.0000 </r>
       <r>   -3.4801    1.0000 </r>
       <r>   -3.3316    1.0000 </r>
       <r>   -2.8074    1.0000 </r>
       <r>   -2.6832    1.0000 </r>
       <r>   -2.5970    1.0000 </r>
       <r>   -2.2402    1.0000 </r>
       <r>   -1.5296    1.0000 </r>
       <r>   -1.4063    1.0000 </r>
       <r>   -1.2269    1.0000 </r>
       <r>   -0.6908    1.0000 </r>
       <r>   -0.1777    1.0000 </r>
       <r>    0.7380    0.0004 </r>
       <r>    1.3215    0.0000 </r>
       <r>    1.7328    0.0000 </r>
       <r>    2.2592    0.0000 </r>
       <r>    2.3467    0.0000 </r>
       <r>    2.4657    0.0000 </r>
      </set>
      <set comment="kpoint 7">
       <r>  -11.1598    1.0000 </r>
       <r>  -10.7502    1.0000 </r>
       <r>  -10.2627    1.0000 </r>
       <r>   -9.9410    1.0000 </r>
       <r>   -4.4710    1.0000 </r>
       <r>   -4.3438    1.0000 </r>
       <r>   -4.3117    1.0000 </r>
       <r>   -3.4117    1.0000 </r>
       <r>   -3.2561    1.0000 </r>
       <r>   -3.0924    1.0000 </r>
       <r>   -2.8386    1.0000 </r>
       <r>   -2.7993    1.0000 </r>
       <r>   -2.2246    1.0000 </r>
       <r>   -1.6889    1.0000 </r>
       <r>   -1.4406    1.0000 </r>
       <r>   -1.3266    1.0000 </r>
       <r>   -0.8514    1.0000 </r>
       <r>   -0.3902    1.0000 </r>
       <r>    1.0127    0.0000 </r>
       <r>    1.3698    0.0000 </r>
       <r>    1.7572    0.0000 </r>
       <r>    2.0893    0.0000 </r>
       <r>    2.2794    0.0000 </r>
       <r>    2.4872    0.0000 </r>
      </set>
      <set comment="kpoint 8">
       <r>  -10.8221    1.0000 </r>
       <r>  -10.5777    1.0000 </r>
       <r>  -10.2174    1.0000 </r>
       <r>   -9.9748    1.0000 </r>
       <r>   -4.6388    1.0000 </r>
       <r>   -4.4661    1.0000 </r>
       <r>   -4.3194    1.0000 </r>
       <r>   -3.8431    1.0000 </r>
       <r>   -3.3175    1.0000 </r>
       <r>   -3.2272    1.0000 </r>
       <r>   -2.7515    1.0000 </r>
       <r>   -2.6111    1.0000 </r>
       <r>   -2.0877    1.0000 </r>
       <r>   -1.8729    1.0000 </r>
       <r>   -1.4663    1.0000 </r>
       <r>   -1.3048    1.0000 </r>
       <r>   -1.0052    1.0000 </r>
       <r>   -0.6641    1.0000 </r>
       <r>    1.2727    0.0000 </r>
       <r>    1.4590    0.0000 </r>
       <r>    1.8121    0.0000 </r>
       <r>    1.9102    0.0000 </r>
       <r>    2.1649    0.0000 </r>
       <r>    2.4957    0.0000 </r>
      </set>
      <set comment="kpoint 9">
       <r>  -10.5423    1.0000 </r>
       <r>  -10.4674    1.0000 </r>
       <r>  -10.1973    1.0000 </r>
       <r>  -10.0993    1.0000 </r>
       <r>   -4.6438    1.0000 </r>
       <r>   -4.5359    1.0000 </r>
       <r>   -4.3408    1.0000 </r>
       <r>   -4.2131    1.0000 </r>
       <r>   -3.3809    1.0000 </r>
       <r>   -3.3484    1.0000 </r>
       <r>   -2.4597    1.0000 </r>
       <r>   -2.3353    1.0000 </r>
       <r>   -2.1764    1.0000 </r>
       <r>   -2.0849    1.0000 </r>
       <r>   -1.3329    1.0000 </r>
       <r>   -1.2523    1.0000 </r>
       <r>   -1.1000    1.0000 </r>
       <r>   -0.9614    1.0000 </r>
       <r>    1.4517    0.0000 </r>
       <r>    1.5050    0.0000 </r>
       <r>    1.8060    0.0000 </r>
       <r>    1.8100    0.0000 </r>
       <r>    2.2233    0.0000 </r>
       <r>    2.3818    0.0000 </r>
      </set>
      <set comment="kpoint 10">
       <r>  -10.5423    1.0000 </r>
       <r>  -10.4674    1.0000 </r>
       <r>  -10.1973    1.0000 </r>
       <r>  -10.0993    1.0000 </r>
       <r>   -4.6438    1.0000 </r>
       <r>   -4.5359    1.0000 </r>
       <r>   -4.3408    1.0000 </r>
       <r>   -4.2131    1.0000 </r>
       <r>   -3.3809    1.0000 </r>
       <r>   -3.3484    1.0000 </r>
       <r>   -2.4597    1.0000 </r>
       <r>   -2.3353    1.0000 </r>
       <r>   -2.1764    1.0000 </r>
       <r>   -2.0849    1.0000 </r>
       <r>   -1.3329    1.0000 </r>
       <r>   -1.2523    1.0000 </r>
       <r>   -1.1000    1.0000 </r>
       <r>   -0.9614    1.0000 </r>
       <r>    1.4517    0.0000 </r>
       <r>    1.5050    0.0000 </r>
       <r>    1.8060    0.0000 </r>
       <r>    1.8100    0.0000 </r>
       <r>    2.2233    0.0000 </r>
       <r>    2.3818    0.0000 </r>
      </set>
      <set comment="kpoint 11">
       <r>  -10.8221    1.0000 </r>
       <r>  -10.5777    1.0000 </r>
       <r>  -10.2174    1.0000 </r>
       <r>   -9.9748    1.0000 </r>
       <r>   -4.6388    1.0000 </r>
       <r>   -4.4661    1.0000 </r>
       <r>   -4.3194    1.0000 </r>
       <r>   -3.8431    1.0000 </r>
       <r>   -3.3175    1.0000 </r>
       <r>   -3.2272    1.0000 </r>
       <r>   -2.7515    1.0000 </r>
       <r>   -2.6111    1.0000 </r>
       <r>   -2.0877    1.0000 </r>
       <r>   -1.8729    1.0000 </r>
       <r>   -1.4663    1.0000 </r>
       <r>   -1.3048    1.0000 </r>
       <r>   -1.0052    1.0000 </r>
       <r>   -0.6641    1.0000 </r>
       <r>    1.2727    0.0000 </r>
       <r>    1.4590    0.0000 </r>
       <r>    1.8121    0.0000 </r>
       <r>    1.9102    0.0000 </r>
       <r>    2.1649    0.0000 </r>
       <r>    2.4957    0.0000 </r>
      </set>
      <set comment="kpoint 12">
       <r>  -11.1598    1.0000 </r>
       <r>  -10.7502    1.0000 </r>
       <r>  -10.2627    1.0000 </r>
       <r>   -9.9410    1.0000 </r>
       <r>   -4.4710    1.0000 </r>
       <r>   -4.3438    1.0000 </r>
       <r>   -4.3117    1.0000 </r>
       <r>   -3.4117    1.0000 </r>
       <r>   -3.2561    1.0000 </r>
       <r>   -3.0924    1.0000 </r>
       <r>   -2.8386    1.0000 </r>
       <r>   -2.7993    1.0000 </r>
       <r>   -2.2246    1.0000 </r>
       <r>   -1.6889    1.0000 </r>
       <r>   -1.4406    1.0000 </r>
       <r>   -1.3266    1.0000 </r>
       <r>   -0.8514    1.0000 </r>
       <r>   -0.3902    1.0000 </r>
       <r>    1.0127    0.0000 </r>
       <r>    1.3698    0.0000 </r>
       <r>    1.7572    0.0000 </r>
       <r>    2.0893    0.0000 </r>
       <r>    2.2794    0.0000 </r>
       <r>    2.4872    0.0000 </r>
      </set>
      <set comment="kpoint 13">
       <r>  -11.4948    1.0000 </r>
       <r>  -10.9414    1.0000 </r>
       <r>  -10.3457    1.0000 </r>
       <r>   -9.9990    1.0000 </r>
       <r>   -4.4435    1.0000 </r>
       <r>   -4.3172    1.0000 </r>
       <r>   -3.9644    1.0000 </r>
       <r>   -3.4801    1.0000 </r>
       <r>   -3.3316    1.0000 </r>
       <r>   -2.8074    1.0000 </r>
       <r>   -2.6832    1.0000 </r>
       <r>   -2.5970    1.0000 </r>
       <r>   -2.2402    1.0000 </r>
       <r>   -1.5296    1.0000 </r>
       <r>   -1.4063    1.0000 </r>
       <r>   -1.2269    1.0000 </r>
       <r>   -0.6908    1.0000 </r>
       <r>   -0.1777    1.0000 </r>
       <r>    0.7380    0.0004 </r>
       <r>    1.3215    0.0000 </r>
       <r>    1.7328    0.0000 </r>
       <r>    2.2592    0.0000 </r>
       <r>    2.3467    0.0000 </r>
       <r>    2.4657    0.0000 </r>
      </set>
      <set comment="kpoint 14">
       <r>  -11.7991    1.0000 </r>
       <r>  -11.1275    1.0000 </r>
       <r>  -10.4503    1.0000 </r>
       <r>  -10.1122    1.0000 </r>
       <r>   -4.6233    1.0000 </r>
       <r>   -4.2647    1.0000 </r>
       <r>   -3.7793    1.0000 </r>
       <r>   -3.4772    1.0000 </r>
       <r>   -3.3105    1.0000 </r>
       <r>   -2.6615    1.0000 </r>
       <r>   -2.5184    1.0000 </r>
       <r>   -2.4262    1.0000 </r>
       <r>   -1.7025    1.0000 </r>
       <r>   -1.4163    1.0000 </r>
       <r>   -1.3500    1.0000 </r>
       <r>   -0.9840    1.0000 </r>
       <r>   -0.5422    1.0000 </r>
       <r>   -0.0425    1.0000 </r>
       <r>    0.4999    0.0860 </r>
       <r>    1.3496    0.0000 </r>
       <r>    1.8317    0.0000 </r>
       <r>    2.2408    0.0000 </r>
       <r>    2.3615    0.0000 </r>
       <r>    2.5095    0.0000 </r>
      </set>
      <set comment="kpoint 15">
       <r>  -12.0564    1.0000 </r>
       <r>  -11.2920    1.0000 </r>
       <r>  -10.5573    1.0000 </r>
       <r>  -10.2422    1.0000 </r>
       <r>   -4.8387    1.0000 </r>
       <r>   -4.2641    1.0000 </r>
       <r>   -4.0456    1.0000 </r>
       <r>   -3.4320    1.0000 </r>
       <r>   -2.8479    1.0000 </r>
       <r>   -2.6233    1.0000 </r>
       <r>   -2.3077    1.0000 </r>
       <r>   -2.2065    1.0000 </r>
       <r>   -1.3922    1.0000 </r>
       <r>   -1.2280    1.0000 </r>
       <r>   -1.0791    1.0000 </r>
       <r>   -0.7080    1.0000 </r>
       <r>   -0.3299    1.0000 </r>
       <r>    0.0091    0.9999 </r>
       <r>    0.3532    0.7390 </r>
       <r>    1.4603    0.0000 </r>
       <r>    2.1006    0.0000 </r>
       <r>    2.2163    0.0000 </r>
       <r>    2.3919    0.0000 </r>
       <r>    2.4195    0.0000 </r>
      </set>
      <set comment="kpoint 16">
       <r>  -12.2565    1.0000 </r>
       <r>  -11.4237    1.0000 </r>
       <r>  -10.6506    1.0000 </r>
       <r>  -10.3601    1.0000 </r>
       <r>   -5.0298    1.0000 </r>
       <r>   -4.3528    1.0000 </r>
       <r>   -4.2147    1.0000 </r>
       <r>   -3.4738    1.0000 </r>
       <r>   -2.5489    1.0000 </r>
       <r>   -2.4580    1.0000 </r>
       <r>   -2.1218    1.0000 </r>
       <r>   -1.9405    1.0000 </r>
       <r>   -1.3457    1.0000 </r>
       <r>   -1.0272    1.0000 </r>
       <r>   -0.8042    1.0000 </r>
       <r>   -0.5247    1.0000 </r>
       <r>   -0.0129    0.9999 </r>
       <r>    0.0892    0.9992 </r>
       <r>    0.3618    0.6988 </r>
       <r>    1.6350    0.0000 </r>
       <r>    2.1995    0.0000 </r>
       <r>    2.3001    0.0000 </r>
       <r>    2.4096    0.0000 </r>
       <r>    2.5689    0.0000 </r>
      </set>
      <set comment="kpoint 17">
       <r>  -12.3931    1.0000 </r>
       <r>  -11.5152    1.0000 </r>
       <r>  -10.7188    1.0000 </r>
       <r>  -10.4473    1.0000 </r>
       <r>   -5.1684    1.0000 </r>
       <r>   -4.4887    1.0000 </r>
       <r>   -4.2785    1.0000 </r>
       <r>   -3.5236    1.0000 </r>
       <r>   -2.4694    1.0000 </r>
       <r>   -2.1748    1.0000 </r>
       <r>   -2.0535    1.0000 </r>
       <r>   -1.7102    1.0000 </r>
       <r>   -1.3151    1.0000 </r>
       <r>   -0.9130    1.0000 </r>
       <r>   -0.7095    1.0000 </r>
       <r>   -0.3901    1.0000 </r>
       <r>   -0.0051    0.9999 </r>
       <r>    0.4430    0.2606 </r>
       <r>    0.5864    0.0125 </r>
       <r>    1.6652    0.0000 </r>
       <r>    2.1427    0.0000 </r>
       <r>    2.3653    0.0000 </r>
       <r>    2.4340    0.0000 </r>
       <r>    3.1157    0.0000 </r>
      </set>
      <set comment="kpoint 18">
       <r>  -12.4622    1.0000 </r>
       <r>  -11.5620    1.0000 </r>
       <r>  -10.7546    1.0000 </r>
       <r>  -10.4933    1.0000 </r>
       <r>   -5.2406    1.0000 </r>
       <r>   -4.5674    1.0000 </r>
       <r>   -4.3079    1.0000 </r>
       <r>   -3.5552    1.0000 </r>
       <r>   -2.4299    1.0000 </r>
       <r>   -2.0177    1.0000 </r>
       <r>   -1.9599    1.0000 </r>
       <r>   -1.6510    1.0000 </r>
       <r>   -1.3165    1.0000 </r>
       <r>   -0.9543    1.0000 </r>
       <r>   -0.6763    1.0000 </r>
       <r>   -0.2186    1.0000 </r>
       <r>   -0.0004    0.9999 </r>
       <r>    0.5948    0.0103 </r>
       <r>    0.9011    0.0000 </r>
       <r>    1.5194    0.0000 </r>
       <r>    2.0364    0.0000 </r>
       <r>    2.4264    0.0000 </r>
       <r>    2.6224    0.0000 </r>
       <r>    3.5263    0.0000 </r>
      </set>
      <set comment="kpoint 19">
       <r>  -12.4438    1.0000 </r>
       <r>  -11.5531    1.0000 </r>
       <r>  -10.7957    1.0000 </r>
       <r>  -10.5024    1.0000 </r>
       <r>   -5.2164    1.0000 </r>
       <r>   -4.5166    1.0000 </r>
       <r>   -4.2896    1.0000 </r>
       <r>   -3.5296    1.0000 </r>
       <r>   -2.4798    1.0000 </r>
       <r>   -2.0199    1.0000 </r>
       <r>   -1.9374    1.0000 </r>
       <r>   -1.6510    1.0000 </r>
       <r>   -1.3969    1.0000 </r>
       <r>   -0.8879    1.0000 </r>
       <r>   -0.7045    1.0000 </r>
       <r>   -0.2283    1.0000 </r>
       <r>    0.0029    0.9999 </r>
       <r>    0.5339    0.0410 </r>
       <r>    0.8853    0.0000 </r>
       <r>    1.5161    0.0000 </r>
       <r>    2.0033    0.0000 </r>
       <r>    2.4138    0.0000 </r>
       <r>    2.6554    0.0000 </r>
       <r>    3.4969    0.0000 </r>
      </set>
      <set comment="kpoint 20">
       <r>  -12.3749    1.0000 </r>
       <r>  -11.5064    1.0000 </r>
       <r>  -10.7580    1.0000 </r>
       <r>  -10.4574    1.0000 </r>
       <r>   -5.1429    1.0000 </r>
       <r>   -4.4375    1.0000 </r>
       <r>   -4.2642    1.0000 </r>
       <r>   -3.4970    1.0000 </r>
       <r>   -2.5204    1.0000 </r>
       <r>   -2.1878    1.0000 </r>
       <r>   -2.0290    1.0000 </r>
       <r>   -1.7025    1.0000 </r>
       <r>   -1.3672    1.0000 </r>
       <r>   -0.8917    1.0000 </r>
       <r>   -0.7346    1.0000 </r>
       <r>   -0.3776    1.0000 </r>
       <r>   -0.0210    0.9999 </r>
       <r>    0.3474    0.7640 </r>
       <r>    0.6593    0.0023 </r>
       <r>    1.6086    0.0000 </r>
       <r>    2.0852    0.0000 </r>
       <r>    2.4048    0.0000 </r>
       <r>    2.4536    0.0000 </r>
       <r>    3.1344    0.0000 </r>
      </set>
      <set comment="kpoint 21">
       <r>  -12.2388    1.0000 </r>
       <r>  -11.4150    1.0000 </r>
       <r>  -10.6865    1.0000 </r>
       <r>  -10.3718    1.0000 </r>
       <r>   -5.0017    1.0000 </r>
       <r>   -4.3024    1.0000 </r>
       <r>   -4.2078    1.0000 </r>
       <r>   -3.4476    1.0000 </r>
       <r>   -2.5976    1.0000 </r>
       <r>   -2.4499    1.0000 </r>
       <r>   -2.1510    1.0000 </r>
       <r>   -1.8966    1.0000 </r>
       <r>   -1.3833    1.0000 </r>
       <r>   -1.0474    1.0000 </r>
       <r>   -0.8129    1.0000 </r>
       <r>   -0.5110    1.0000 </r>
       <r>   -0.0537    1.0000 </r>
       <r>    0.0390    0.9998 </r>
       <r>    0.4376    0.2853 </r>
       <r>    1.5933    0.0000 </r>
       <r>    2.0989    0.0000 </r>
       <r>    2.3630    0.0000 </r>
       <r>    2.3970    0.0000 </r>
       <r>    2.6381    0.0000 </r>
      </set>
      <set comment="kpoint 22">
       <r>  -12.0394    1.0000 </r>
       <r>  -11.2836    1.0000 </r>
       <r>  -10.5887    1.0000 </r>
       <r>  -10.2552    1.0000 </r>
       <r>   -4.8078    1.0000 </r>
       <r>   -4.2382    1.0000 </r>
       <r>   -4.0308    1.0000 </r>
       <r>   -3.4133    1.0000 </r>
       <r>   -2.8386    1.0000 </r>
       <r>   -2.6310    1.0000 </r>
       <r>   -2.3954    1.0000 </r>
       <r>   -2.1322    1.0000 </r>
       <r>   -1.4396    1.0000 </r>
       <r>   -1.2993    1.0000 </r>
       <r>   -1.0009    1.0000 </r>
       <r>   -0.7317    1.0000 </r>
       <r>   -0.3258    1.0000 </r>
       <r>   -0.0355    1.0000 </r>
       <r>    0.4019    0.4777 </r>
       <r>    1.4581    0.0000 </r>
       <r>    2.0345    0.0000 </r>
       <r>    2.1614    0.0000 </r>
       <r>    2.4004    0.0000 </r>
       <r>    2.5363    0.0000 </r>
      </set>
      <set comment="kpoint 23">
       <r>  -11.7831    1.0000 </r>
       <r>  -11.1196    1.0000 </r>
       <r>  -10.4768    1.0000 </r>
       <r>  -10.1253    1.0000 </r>
       <r>   -4.5970    1.0000 </r>
       <r>   -4.2491    1.0000 </r>
       <r>   -3.7997    1.0000 </r>
       <r>   -3.4355    1.0000 </r>
       <r>   -3.2997    1.0000 </r>
       <r>   -2.6471    1.0000 </r>
       <r>   -2.5772    1.0000 </r>
       <r>   -2.3934    1.0000 </r>
       <r>   -1.8088    1.0000 </r>
       <r>   -1.4288    1.0000 </r>
       <r>   -1.2441    1.0000 </r>
       <r>   -0.9926    1.0000 </r>
       <r>   -0.5353    1.0000 </r>
       <r>   -0.0970    1.0000 </r>
       <r>    0.5324    0.0424 </r>
       <r>    1.3627    0.0000 </r>
       <r>    1.8171    0.0000 </r>
       <r>    2.1667    0.0000 </r>
       <r>    2.3627    0.0000 </r>
       <r>    2.6219    0.0000 </r>
      </set>
      <set comment="kpoint 24">
       <r>  -11.4803    1.0000 </r>
       <r>  -10.9343    1.0000 </r>
       <r>  -10.3670    1.0000 </r>
       <r>  -10.0101    1.0000 </r>
       <r>   -4.4814    1.0000 </r>
       <r>   -4.2749    1.0000 </r>
       <r>   -3.9485    1.0000 </r>
       <r>   -3.4813    1.0000 </r>
       <r>   -3.3335    1.0000 </r>
       <r>   -2.7911    1.0000 </r>
       <r>   -2.6922    1.0000 </r>
       <r>   -2.6097    1.0000 </r>
       <r>   -2.2575    1.0000 </r>
       <r>   -1.5156    1.0000 </r>
       <r>   -1.3538    1.0000 </r>
       <r>   -1.2229    1.0000 </r>
       <r>   -0.6954    1.0000 </r>
       <r>   -0.2264    1.0000 </r>
       <r>    0.7551    0.0003 </r>
       <r>    1.3413    0.0000 </r>
       <r>    1.7277    0.0000 </r>
       <r>    2.2202    0.0000 </r>
       <r>    2.3222    0.0000 </r>
       <r>    2.5833    0.0000 </r>
      </set>
      <set comment="kpoint 25">
       <r>  -11.1478    1.0000 </r>
       <r>  -10.7441    1.0000 </r>
       <r>  -10.2789    1.0000 </r>
       <r>   -9.9476    1.0000 </r>
       <r>   -4.5994    1.0000 </r>
       <r>   -4.3301    1.0000 </r>
       <r>   -4.1895    1.0000 </r>
       <r>   -3.4957    1.0000 </r>
       <r>   -3.3080    1.0000 </r>
       <r>   -2.9926    1.0000 </r>
       <r>   -2.8266    1.0000 </r>
       <r>   -2.7957    1.0000 </r>
       <r>   -2.1999    1.0000 </r>
       <r>   -1.6727    1.0000 </r>
       <r>   -1.3952    1.0000 </r>
       <r>   -1.3258    1.0000 </r>
       <r>   -0.8651    1.0000 </r>
       <r>   -0.4204    1.0000 </r>
       <r>    1.0146    0.0000 </r>
       <r>    1.3941    0.0000 </r>
       <r>    1.7572    0.0000 </r>
       <r>    2.0892    0.0000 </r>
       <r>    2.3157    0.0000 </r>
       <r>    2.5078    0.0000 </r>
      </set>
      <set comment="kpoint 26">
       <r>  -10.8143    1.0000 </r>
       <r>  -10.5730    1.0000 </r>
       <r>  -10.2282    1.0000 </r>
       <r>   -9.9748    1.0000 </r>
       <r>   -4.7540    1.0000 </r>
       <r>   -4.4106    1.0000 </r>
       <r>   -4.3297    1.0000 </r>
       <r>   -3.8727    1.0000 </r>
       <r>   -3.3614    1.0000 </r>
       <r>   -3.1119    1.0000 </r>
       <r>   -2.7600    1.0000 </r>
       <r>   -2.5879    1.0000 </r>
       <r>   -2.0669    1.0000 </r>
       <r>   -1.8591    1.0000 </r>
       <r>   -1.4148    1.0000 </r>
       <r>   -1.3050    1.0000 </r>
       <r>   -1.0274    1.0000 </r>
       <r>   -0.6680    1.0000 </r>
       <r>    1.2634    0.0000 </r>
       <r>    1.4825    0.0000 </r>
       <r>    1.8216    0.0000 </r>
       <r>    1.9300    0.0000 </r>
       <r>    2.2012    0.0000 </r>
       <r>    2.4910    0.0000 </r>
      </set>
      <set comment="kpoint 27">
       <r>  -10.5419    1.0000 </r>
       <r>  -10.4658    1.0000 </r>
       <r>  -10.1992    1.0000 </r>
       <r>  -10.0936    1.0000 </r>
       <r>   -4.7459    1.0000 </r>
       <r>   -4.5748    1.0000 </r>
       <r>   -4.3510    1.0000 </r>
       <r>   -4.1939    1.0000 </r>
       <r>   -3.3560    1.0000 </r>
       <r>   -3.2693    1.0000 </r>
       <r>   -2.4674    1.0000 </r>
       <r>   -2.3238    1.0000 </r>
       <r>   -2.1559    1.0000 </r>
       <r>   -2.0678    1.0000 </r>
       <r>   -1.3032    1.0000 </r>
       <r>   -1.2375    1.0000 </r>
       <r>   -1.1210    1.0000 </r>
       <r>   -0.9427    1.0000 </r>
       <r>    1.4450    0.0000 </r>
       <r>    1.5159    0.0000 </r>
       <r>    1.8303    0.0000 </r>
       <r>    1.8391    0.0000 </r>
       <r>    2.2352    0.0000 </r>
       <r>    2.3816    0.0000 </r>
      </set>
      <set comment="kpoint 28">
       <r>  -10.5419    1.0000 </r>
       <r>  -10.4658    1.0000 </r>
       <r>  -10.1992    1.0000 </r>
       <r>  -10.0936    1.0000 </r>
       <r>   -4.7459    1.0000 </r>
       <r>   -4.5748    1.0000 </r>
       <r>   -4.3510    1.0000 </r>
       <r>   -4.1939    1.0000 </r>
       <r>   -3.3560    1.0000 </r>
       <r>   -3.2693    1.0000 </r>
       <r>   -2.4674    1.0000 </r>
       <r>   -2.3238    1.0000 </r>
       <r>   -2.1559    1.0000 </r>
       <r>   -2.0678    1.0000 </r>
       <r>   -1.3032    1.0000 </r>
       <r>   -1.2375    1.0000 </r>
       <r>   -1.1210    1.0000 </r>
       <r>   -0.9427    1.0000 </r>
       <r>    1.4450    0.0000 </r>
       <r>    1.5159    0.0000 </r>
       <r>    1.8303    0.0000 </r>
       <r>    1.8391    0.0000 </r>
       <r>    2.2352    0.0000 </r>
       <r>    2.3816    0.0000 </r>
      </set>
      <set comment="kpoint 29">
       <r>  -10.8143    1.0000 </r>
       <r>  -10.5730    1.0000 </r>
       <r>  -10.2282    1.0000 </r>
       <r>   -9.9748    1.0000 </r>
       <r>   -4.7540    1.0000 </r>
       <r>   -4.4106    1.0000 </r>
       <r>   -4.3297    1.0000 </r>
       <r>   -3.8727    1.0000 </r>
       <r>   -3.3614    1.0000 </r>
       <r>   -3.1119    1.0000 </r>
       <r>   -2.7600    1.0000 </r>
       <r>   -2.5879    1.0000 </r>
       <r>   -2.0669    1.0000 </r>
       <r>   -1.8591    1.0000 </r>
       <r>   -1.4148    1.0000 </r>
       <r>   -1.3050    1.0000 </r>
       <r>   -1.0274    1.0000 </r>
       <r>   -0.6680    1.0000 </r>
       <r>    1.2634    0.0000 </r>
       <r>    1.4825    0.0000 </r>
       <r>    1.8216    0.0000 </r>
       <r>    1.9300    0.0000 </r>
       <r>    2.2012    0.0000 </r>
       <r>    2.4910    0.0000 </r>
      </set>
      <set comment="kpoint 30">
       <r>  -11.1478    1.0000 </r>
       <r>  -10.7441    1.0000 </r>
       <r>  -10.2789    1.0000 </r>
       <r>   -9.9476    1.0000 </r>
       <r>   -4.5994    1.0000 </r>
       <r>   -4.3301    1.0000 </r>
       <r>   -4.1895    1.0000 </r>
       <r>   -3.4957    1.0000 </r>
       <r>   -3.3080    1.0000 </r>
       <r>   -2.9926    1.0000 </r>
       <r>   -2.8266    1.0000 </r>
       <r>   -2.7957    1.0000 </r>
       <r>   -2.1999    1.0000 </r>
       <r>   -1.6727    1.0000 </r>
       <r>   -1.3952    1.0000 </r>
       <r>   -1.3258    1.0000 </r>
       <r>   -0.8651    1.0000 </r>
       <r>   -0.4204    1.0000 </r>
       <r>    1.0146    0.0000 </r>
       <r>    1.3941    0.0000 </r>
       <r>    1.7572    0.0000 </r>
       <r>    2.0892    0.0000 </r>
       <r>    2.3157    0.0000 </r>
       <r>    2.5078    0.0000 </r>
      </set>
      <set comment="kpoint 31">
       <r>  -11.4803    1.0000 </r>
       <r>  -10.9343    1.0000 </r>
       <r>  -10.3670    1.0000 </r>
       <r>  -10.0101    1.0000 </r>
       <r>   -4.4814    1.0000 </r>
       <r>   -4.2749    1.0000 </r>
       <r>   -3.9485    1.0000 </r>
       <r>   -3.4813    1.0000 </r>
       <r>   -3.3335    1.0000 </r>
       <r>   -2.7911    1.0000 </r>
       <r>   -2.6922    1.0000 </r>
       <r>   -2.6097    1.0000 </r>
       <r>   -2.2575    1.0000 </r>
       <r>   -1.5156    1.0000 </r>
       <r>   -1.3538    1.0000 </r>
       <r>   -1.2229    1.0000 </r>
       <r>   -0.6954    1.0000 </r>
       <r>   -0.2264    1.0000 </r>
       <r>    0.7551    0.0003 </r>
       <r>    1.3413    0.0000 </r>
       <r>    1.7277    0.0000 </r>
       <r>    2.2202    0.0000 </r>
       <r>    2.3222    0.0000 </r>
       <r>    2.5833    0.0000 </r>
      </set>
      <set comment="kpoint 32">
       <r>  -11.7831    1.0000 </r>
       <r>  -11.1196    1.0000 </r>
       <r>  -10.4768    1.0000 </r>
       <r>  -10.1253    1.0000 </r>
       <r>   -4.5970    1.0000 </r>
       <r>   -4.2491    1.0000 </r>
       <r>   -3.7997    1.0000 </r>
       <r>   -3.4355    1.0000 </r>
       <r>   -3.2997    1.0000 </r>
       <r>   -2.6471    1.0000 </r>
       <r>   -2.5772    1.0000 </r>
       <r>   -2.3934    1.0000 </r>
       <r>   -1.8088    1.0000 </r>
       <r>   -1.4288    1.0000 </r>
       <r>   -1.2441    1.0000 </r>
       <r>   -0.9926    1.0000 </r>
       <r>   -0.5353    1.0000 </r>
       <r>   -0.0970    1.0000 </r>
       <r>    0.5324    0.0424 </r>
       <r>    1.3627    0.0000 </r>
       <r>    1.8171    0.0000 </r>
       <r>    2.1667    0.0000 </r>
       <r>    2.3627    0.0000 </r>
       <r>    2.6219    0.0000 </r>
      </set>
      <set comment="kpoint 33">
       <r>  -12.0394    1.0000 </r>
       <r>  -11.2836    1.0000 </r>
       <r>  -10.5887    1.0000 </r>
       <r>  -10.2552    1.0000 </r>
       <r>   -4.8078    1.0000 </r>
       <r>   -4.2382    1.0000 </r>
       <r>   -4.0308    1.0000 </r>
       <r>   -3.4133    1.0000 </r>
       <r>   -2.8386    1.0000 </r>
       <r>   -2.6310    1.0000 </r>
       <r>   -2.3954    1.0000 </r>
       <r>   -2.1322    1.0000 </r>
       <r>   -1.4396    1.0000 </r>
       <r>   -1.2993    1.0000 </r>
       <r>   -1.0009    1.0000 </r>
       <r>   -0.7317    1.0000 </r>
       <r>   -0.3258    1.0000 </r>
       <r>   -0.0355    1.0000 </r>
       <r>    0.4019    0.4777 </r>
       <r>    1.4581    0.0000 </r>
       <r>    2.0345    0.0000 </r>
       <r>    2.1614    0.0000 </r>
       <r>    2.4004    0.0000 </r>
       <r>    2.5363    0.0000 </r>
      </set>
      <set comment="kpoint 34">
       <r>  -12.2388    1.0000 </r>
       <r>  -11.4150    1.0000 </r>
       <r>  -10.6865    1.0000 </r>
       <r>  -10.3718    1.0000 </r>
       <r>   -5.0017    1.0000 </r>
       <r>   -4.3024    1.0000 </r>
       <r>   -4.2078    1.0000 </r>
       <r>   -3.4476    1.0000 </r>
       <r>   -2.5976    1.0000 </r>
       <r>   -2.4499    1.0000 </r>
       <r>   -2.1510    1.0000 </r>
       <r>   -1.8966    1.0000 </r>
       <r>   -1.3833    1.0000 </r>
       <r>   -1.0474    1.0000 </r>
       <r>   -0.8129    1.0000 </r>
       <r>   -0.5110    1.0000 </r>
       <r>   -0.0537    1.0000 </r>
       <r>    0.0390    0.9998 </r>
       <r>    0.4376    0.2853 </r>
       <r>    1.5933    0.0000 </r>
       <r>    2.0989    0.0000 </r>
       <r>    2.3630    0.0000 </r>
       <r>    2.3970    0.0000 </r>
       <r>    2.6381    0.0000 </r>
      </set>
      <set comment="kpoint 35">
       <r>  -12.3749    1.0000 </r>
       <r>  -11.5064    1.0000 </r>
       <r>  -10.7580    1.0000 </r>
       <r>  -10.4574    1.0000 </r>
       <r>   -5.1429    1.0000 </r>
       <r>   -4.4375    1.0000 </r>
       <r>   -4.2642    1.0000 </r>
       <r>   -3.4970    1.0000 </r>
       <r>   -2.5204    1.0000 </r>
       <r>   -2.1878    1.0000 </r>
       <r>   -2.0290    1.0000 </r>
       <r>   -1.7025    1.0000 </r>
       <r>   -1.3672    1.0000 </r>
       <r>   -0.8917    1.0000 </r>
       <r>   -0.7346    1.0000 </r>
       <r>   -0.3776    1.0000 </r>
       <r>   -0.0210    0.9999 </r>
       <r>    0.3474    0.7640 </r>
       <r>    0.6593    0.0023 </r>
       <r>    1.6086    0.0000 </r>
       <r>    2.0852    0.0000 </r>
       <r>    2.4048    0.0000 </r>
       <r>    2.4536    0.0000 </r>
       <r>    3.1344    0.0000 </r>
      </set>
      <set comment="kpoint 36">
       <r>  -12.4438    1.0000 </r>
       <r>  -11.5531    1.0000 </r>
       <r>  -10.7957    1.0000 </r>
       <r>  -10.5024    1.0000 </r>
       <r>   -5.2164    1.0000 </r>
       <r>   -4.5166    1.0000 </r>
       <r>   -4.2896    1.0000 </r>
       <r>   -3.5296    1.0000 </r>
       <r>   -2.4798    1.0000 </r>
       <r>   -2.0199    1.0000 </r>
       <r>   -1.9374    1.0000 </r>
       <r>   -1.6510    1.0000 </r>
       <r>   -1.3969    1.0000 </r>
       <r>   -0.8879    1.0000 </r>
       <r>   -0.7045    1.0000 </r>
       <r>   -0.2283    1.0000 </r>
       <r>    0.0029    0.9999 </r>
       <r>    0.5339    0.0410 </r>
       <r>    0.8853    0.0000 </r>
       <r>    1.5161    0.0000 </r>
       <r>    2.0033    0.0000 </r>
       <r>    2.4138    0.0000 </r>
       <r>    2.6554    0.0000 </r>
       <r>    3.4969    0.0000 </r>
      </set>
      <set comment="kpoint 37">
       <r>  -12.4074    1.0000 </r>
       <r>  -11.5359    1.0000 </r>
       <r>  -10.8712    1.0000 </r>
       <r>  -10.5231    1.0000 </r>
       <r>   -5.1680    1.0000 </r>
       <r>   -4.4347    1.0000 </r>
       <r>   -4.2376    1.0000 </r>
       <r>   -3.4881    1.0000 </r>
       <r>   -2.5676    1.0000 </r>
       <r>   -2.0173    1.0000 </r>
       <r>   -1.9007    1.0000 </r>
       <r>   -1.6530    1.0000 </r>
       <r>   -1.4958    1.0000 </r>
       <r>   -0.8248    1.0000 </r>
[...]
       <r>    2.6741    0.0000 </r>
      </set>
      <set comment="kpoint 159">
       <r>  -11.5117    1.0000 </r>
       <r>  -11.3546    1.0000 </r>
       <r>  -11.0672    1.0000 </r>
       <r>  -10.5115    1.0000 </r>
       <r>   -4.0413    1.0000 </r>
       <r>   -3.9649    1.0000 </r>
       <r>   -3.6972    1.0000 </r>
       <r>   -3.3837    1.0000 </r>
       <r>   -3.1786    1.0000 </r>
       <r>   -2.7417    1.0000 </r>
       <r>   -2.4436    1.0000 </r>
       <r>   -2.1853    1.0000 </r>
       <r>   -1.3953    1.0000 </r>
       <r>   -1.3033    1.0000 </r>
       <r>   -1.0566    1.0000 </r>
       <r>   -0.9503    1.0000 </r>
       <r>   -0.6761    1.0000 </r>
       <r>   -0.2247    1.0000 </r>
       <r>    0.7204    0.0006 </r>
       <r>    0.9835    0.0000 </r>
       <r>    1.8505    0.0000 </r>
       <r>    1.9156    0.0000 </r>
       <r>    2.4390    0.0000 </r>
       <r>    2.6980    0.0000 </r>
      </set>
      <set comment="kpoint 160">
       <r>  -11.6921    1.0000 </r>
       <r>  -11.5161    1.0000 </r>
       <r>  -11.1786    1.0000 </r>
       <r>  -10.6324    1.0000 </r>
       <r>   -4.2557    1.0000 </r>
       <r>   -4.0736    1.0000 </r>
       <r>   -3.8690    1.0000 </r>
       <r>   -3.0478    1.0000 </r>
       <r>   -2.8509    1.0000 </r>
       <r>   -2.6646    1.0000 </r>
       <r>   -2.2990    1.0000 </r>
       <r>   -1.7602    1.0000 </r>
       <r>   -1.3523    1.0000 </r>
       <r>   -1.1905    1.0000 </r>
       <r>   -0.9806    1.0000 </r>
       <r>   -0.9123    1.0000 </r>
       <r>   -0.5388    1.0000 </r>
       <r>   -0.2143    1.0000 </r>
       <r>    0.8056    0.0001 </r>
       <r>    0.8713    0.0000 </r>
       <r>    1.8266    0.0000 </r>
       <r>    1.9959    0.0000 </r>
       <r>    2.6661    0.0000 </r>
       <r>    2.8782    0.0000 </r>
      </set>
      <set comment="kpoint 161">
       <r>  -11.8163    1.0000 </r>
       <r>  -11.6292    1.0000 </r>
       <r>  -11.2571    1.0000 </r>
       <r>  -10.7182    1.0000 </r>
       <r>   -4.4168    1.0000 </r>
       <r>   -4.1728    1.0000 </r>
       <r>   -3.9863    1.0000 </r>
       <r>   -2.9582    1.0000 </r>
       <r>   -2.7394    1.0000 </r>
       <r>   -2.3209    1.0000 </r>
       <r>   -2.1016    1.0000 </r>
       <r>   -1.5477    1.0000 </r>
       <r>   -1.4768    1.0000 </r>
       <r>   -1.1327    1.0000 </r>
       <r>   -0.9441    1.0000 </r>
       <r>   -0.6936    1.0000 </r>
       <r>   -0.4130    1.0000 </r>
       <r>   -0.2893    1.0000 </r>
       <r>    0.6380    0.0038 </r>
       <r>    1.1579    0.0000 </r>
       <r>    1.7935    0.0000 </r>
       <r>    2.1018    0.0000 </r>
       <r>    2.9492    0.0000 </r>
       <r>    3.1906    0.0000 </r>
      </set>
      <set comment="kpoint 162">
       <r>  -11.8795    1.0000 </r>
       <r>  -11.6873    1.0000 </r>
       <r>  -11.2975    1.0000 </r>
       <r>  -10.7626    1.0000 </r>
       <r>   -4.5012    1.0000 </r>
       <r>   -4.2295    1.0000 </r>
       <r>   -4.0455    1.0000 </r>
       <r>   -3.0062    1.0000 </r>
       <r>   -2.6080    1.0000 </r>
       <r>   -1.9919    1.0000 </r>
       <r>   -1.9246    1.0000 </r>
       <r>   -1.6853    1.0000 </r>
       <r>   -1.6036    1.0000 </r>
       <r>   -1.0385    1.0000 </r>
       <r>   -0.9729    1.0000 </r>
       <r>   -0.5077    1.0000 </r>
       <r>   -0.3904    1.0000 </r>
       <r>   -0.2413    1.0000 </r>
       <r>    0.4504    0.2288 </r>
       <r>    1.4869    0.0000 </r>
       <r>    1.7634    0.0000 </r>
       <r>    2.1440    0.0000 </r>
       <r>    3.1623    0.0000 </r>
       <r>    3.1966    0.0000 </r>
      </set>
     </set>
    </set>
   </array>
  </eigenvalues>
  <separator name="orbital magnetization" >
   <v name="MAGDIPOLOUT">      0.00000000      0.00000000      0.00000000</v>
  </separator>
  <dos>
   <i name="efermi">      0.39802197 </i>
   <total>
    <array>
     <dimension dim="1">gridpoints</dimension>
     <dimension dim="2">spin</dimension>
     <field>energy</field>
     <field>total</field>
     <field>integrated</field>
     <set>
      <set comment="spin 1">
       <r>   -13.2616     0.0000     0.0000 </r>
       <r>   -13.2030     0.0000     0.0000 </r>
       <r>   -13.1444     0.0000     0.0000 </r>
       <r>   -13.0857     0.0000     0.0000 </r>
       <r>   -13.0271     0.0000     0.0000 </r>
       <r>   -12.9685     0.0000     0.0000 </r>
       <r>   -12.9099     0.0000     0.0000 </r>
       <r>   -12.8512     0.0001     0.0000 </r>
       <r>   -12.7926     0.0004     0.0000 </r>
       <r>   -12.7340     0.0014     0.0001 </r>
       <r>   -12.6754     0.0054     0.0004 </r>
       <r>   -12.6167     0.0209     0.0017 </r>
       <r>   -12.5581     0.0766     0.0061 </r>
       <r>   -12.4995     0.2438     0.0204 </r>
       <r>   -12.4409     0.5657     0.0536 </r>
       <r>   -12.3822     0.8846     0.1055 </r>
       <r>   -12.3236     1.0335     0.1660 </r>
       <r>   -12.2650     1.1016     0.2306 </r>
       <r>   -12.2064     1.1602     0.2986 </r>
       <r>   -12.1478     1.1236     0.3645 </r>
       <r>   -12.0891     1.1293     0.4308 </r>
       <r>   -12.0305     1.2382     0.5034 </r>
       <r>   -11.9719     1.2668     0.5777 </r>
       <r>   -11.9133     1.1933     0.6477 </r>
       <r>   -11.8546     1.1724     0.7165 </r>
       <r>   -11.7960     1.2455     0.7895 </r>
       <r>   -11.7374     1.3078     0.8663 </r>
       <r>   -11.6788     1.3433     0.9451 </r>
       <r>   -11.6201     1.5138     1.0339 </r>
       <r>   -11.5615     2.0558     1.1544 </r>
       <r>   -11.5029     2.9184     1.3256 </r>
       <r>   -11.4443     3.3930     1.5246 </r>
       <r>   -11.3856     3.2563     1.7155 </r>
       <r>   -11.3270     3.0847     1.8964 </r>
       <r>   -11.2684     3.2035     2.0843 </r>
       <r>   -11.2098     3.2946     2.2775 </r>
       <r>   -11.1511     3.3446     2.4737 </r>
       <r>   -11.0925     3.4036     2.6734 </r>
       <r>   -11.0339     3.3129     2.8677 </r>
       <r>   -10.9753     3.0886     3.0489 </r>
       <r>   -10.9166     3.2104     3.2373 </r>
       <r>   -10.8580     3.5508     3.4456 </r>
       <r>   -10.7994     4.0978     3.6860 </r>
       <r>   -10.7408     4.7972     3.9674 </r>
       <r>   -10.6821     5.2687     4.2764 </r>
       <r>   -10.6235     5.6141     4.6056 </r>
       <r>   -10.5649     6.3742     4.9795 </r>
       <r>   -10.5063     7.2185     5.4028 </r>
       <r>   -10.4476     6.8105     5.8022 </r>
       <r>   -10.3890     5.4205     6.1202 </r>
       <r>   -10.3304     4.3900     6.3778 </r>
       <r>   -10.2718     3.9331     6.6086 </r>
       <r>   -10.2131     3.9805     6.8421 </r>
       <r>   -10.1545     3.9758     7.0756 </r>
       <r>   -10.0959     3.8355     7.3008 </r>
       <r>   -10.0373     4.0170     7.5365 </r>
       <r>    -9.9787     3.7709     7.7577 </r>
       <r>    -9.9200     2.5370     7.9065 </r>
       <r>    -9.8614     1.1096     7.9717 </r>
       <r>    -9.8028     0.3498     7.9924 </r>
       <r>    -9.7442     0.0943     7.9981 </r>
       <r>    -9.6855     0.0219     7.9996 </r>
       <r>    -9.6269     0.0021     8.0000 </r>
       <r>    -9.5683     0.0000     8.0000 </r>
       <r>    -9.5097     0.0000     8.0000 </r>
       <r>    -9.4510     0.0000     8.0000 </r>
       <r>    -9.3924     0.0000     8.0000 </r>
       <r>    -9.3338     0.0000     8.0000 </r>
       <r>    -9.2752     0.0000     8.0000 </r>
       <r>    -9.2165     0.0000     8.0000 </r>
       <r>    -9.1579     0.0000     8.0000 </r>
       <r>    -9.0993     0.0000     8.0000 </r>
       <r>    -9.0407     0.0000     8.0000 </r>
       <r>    -8.9820     0.0000     8.0000 </r>
       <r>    -8.9234     0.0000     8.0000 </r>
       <r>    -8.8648     0.0000     8.0000 </r>
       <r>    -8.8062     0.0000     8.0000 </r>
       <r>    -8.7475     0.0000     8.0000 </r>
       <r>    -8.6889     0.0000     8.0000 </r>
       <r>    -8.6303     0.0000     8.0000 </r>
       <r>    -8.5717     0.0000     8.0000 </r>
       <r>    -8.5130     0.0000     8.0000 </r>
       <r>    -8.4544     0.0000     8.0000 </r>
       <r>    -8.3958     0.0000     8.0000 </r>
       <r>    -8.3372     0.0000     8.0000 </r>
       <r>    -8.2785     0.0000     8.0000 </r>
       <r>    -8.2199     0.0000     8.0000 </r>
       <r>    -8.1613     0.0000     8.0000 </r>
       <r>    -8.1027     0.0000     8.0000 </r>
       <r>    -8.0440     0.0000     8.0000 </r>
       <r>    -7.9854     0.0000     8.0000 </r>
       <r>    -7.9268     0.0000     8.0000 </r>
       <r>    -7.8682     0.0000     8.0000 </r>
       <r>    -7.8095     0.0000     8.0000 </r>
       <r>    -7.7509     0.0000     8.0000 </r>
       <r>    -7.6923     0.0000     8.0000 </r>
       <r>    -7.6337     0.0000     8.0000 </r>
       <r>    -7.5751     0.0000     8.0000 </r>
       <r>    -7.5164     0.0000     8.0000 </r>
       <r>    -7.4578     0.0000     8.0000 </r>
       <r>    -7.3992     0.0000     8.0000 </r>
       <r>    -7.3406     0.0000     8.0000 </r>
       <r>    -7.2819     0.0000     8.0000 </r>
       <r>    -7.2233     0.0000     8.0000 </r>
       <r>    -7.1647     0.0000     8.0000 </r>
       <r>    -7.1061     0.0000     8.0000 </r>
       <r>    -7.0474     0.0000     8.0000 </r>
       <r>    -6.9888     0.0000     8.0000 </r>
       <r>    -6.9302     0.0000     8.0000 </r>
       <r>    -6.8716     0.0000     8.0000 </r>
       <r>    -6.8129     0.0000     8.0000 </r>
       <r>    -6.7543     0.0000     8.0000 </r>
       <r>    -6.6957     0.0000     8.0000 </r>
       <r>    -6.6371     0.0000     8.0000 </r>
       <r>    -6.5784     0.0000     8.0000 </r>
       <r>    -6.5198     0.0000     8.0000 </r>
       <r>    -6.4612     0.0000     8.0000 </r>
       <r>    -6.4026     0.0000     8.0000 </r>
       <r>    -6.3439     0.0000     8.0000 </r>
       <r>    -6.2853     0.0000     8.0000 </r>
       <r>    -6.2267     0.0000     8.0000 </r>
       <r>    -6.1681     0.0000     8.0000 </r>
       <r>    -6.1094     0.0000     8.0000 </r>
       <r>    -6.0508     0.0000     8.0000 </r>
       <r>    -5.9922     0.0000     8.0000 </r>
       <r>    -5.9336     0.0000     8.0000 </r>
       <r>    -5.8749     0.0000     8.0000 </r>
       <r>    -5.8163     0.0000     8.0000 </r>
       <r>    -5.7577     0.0001     8.0000 </r>
       <r>    -5.6991     0.0004     8.0000 </r>
       <r>    -5.6404     0.0015     8.0001 </r>
       <r>    -5.5818     0.0061     8.0005 </r>
       <r>    -5.5232     0.0235     8.0019 </r>
       <r>    -5.4646     0.0843     8.0068 </r>
       <r>    -5.4060     0.2549     8.0217 </r>
       <r>    -5.3473     0.5635     8.0548 </r>
       <r>    -5.2887     0.9905     8.1128 </r>
       <r>    -5.2301     1.5395     8.2031 </r>
       <r>    -5.1715     1.8533     8.3117 </r>
       <r>    -5.1128     1.8325     8.4192 </r>
       <r>    -5.0542     1.7689     8.5229 </r>
       <r>    -4.9956     1.9167     8.6353 </r>
       <r>    -4.9370     2.2496     8.7672 </r>
       <r>    -4.8783     2.5532     8.9170 </r>
       <r>    -4.8197     2.5111     9.0643 </r>
       <r>    -4.7611     2.3195     9.2003 </r>
       <r>    -4.7025     2.2166     9.3303 </r>
       <r>    -4.6438     2.3780     9.4699 </r>
       <r>    -4.5852     2.8929     9.6395 </r>
       <r>    -4.5266     3.7098     9.8572 </r>
       <r>    -4.4680     4.7053    10.1331 </r>
       <r>    -4.4093     5.8623    10.4768 </r>
       <r>    -4.3507     6.9967    10.8871 </r>
       <r>    -4.2921     7.6405    11.3351 </r>
       <r>    -4.2335     7.8260    11.7940 </r>
       <r>    -4.1748     7.2850    12.2213 </r>
       <r>    -4.1162     6.1585    12.5825 </r>
       <r>    -4.0576     5.4483    12.9022 </r>
       <r>    -3.9990     5.0287    13.1973 </r>
       <r>    -3.9403     4.5549    13.4647 </r>
       <r>    -3.8817     4.1131    13.7062 </r>
       <r>    -3.8231     3.7767    13.9280 </r>
       <r>    -3.7645     3.7385    14.1473 </r>
       <r>    -3.7058     3.6456    14.3612 </r>
       <r>    -3.6472     3.2056    14.5493 </r>
       <r>    -3.5886     3.1077    14.7317 </r>
       <r>    -3.5300     3.7448    14.9514 </r>
       <r>    -3.4713     4.8467    15.2357 </r>
       <r>    -3.4127     5.8903    15.5811 </r>
       <r>    -3.3541     6.3289    15.9523 </r>
       <r>    -3.2955     5.7488    16.2894 </r>
       <r>    -3.2368     4.5963    16.5590 </r>
       <r>    -3.1782     3.8306    16.7837 </r>
       <r>    -3.1196     3.5501    16.9921 </r>
       <r>    -3.0610     3.8839    17.2201 </r>
       <r>    -3.0024     4.8691    17.5059 </r>
       <r>    -2.9437     5.5610    17.8321 </r>
       <r>    -2.8851     5.3465    18.1457 </r>
       <r>    -2.8265     5.3109    18.4572 </r>
       <r>    -2.7679     5.8859    18.8024 </r>
       <r>    -2.7092     6.5253    19.1850 </r>
       <r>    -2.6506     7.1189    19.6026 </r>
       <r>    -2.5920     7.2009    20.0250 </r>
       <r>    -2.5334     6.7173    20.4190 </r>
       <r>    -2.4747     6.7908    20.8173 </r>
       <r>    -2.4161     6.7060    21.2108 </r>
       <r>    -2.3575     5.6263    21.5408 </r>
       <r>    -2.2989     4.8458    21.8253 </r>
       <r>    -2.2402     4.8606    22.1106 </r>
       <r>    -2.1816     5.1858    22.4148 </r>
       <r>    -2.1230     5.1855    22.7191 </r>
       <r>    -2.0644     5.1139    23.0192 </r>
       <r>    -2.0057     5.2702    23.3283 </r>
       <r>    -1.9471     5.3647    23.6430 </r>
       <r>    -1.8885     5.3311    23.9558 </r>
       <r>    -1.8299     5.5570    24.2818 </r>
       <r>    -1.7712     6.0975    24.6395 </r>
       <r>    -1.7126     6.5180    25.0218 </r>
       <r>    -1.6540     6.7409    25.4172 </r>
       <r>    -1.5954     6.4096    25.7932 </r>
       <r>    -1.5367     5.9292    26.1410 </r>
       <r>    -1.4781     6.3259    26.5120 </r>
       <r>    -1.4195     8.0261    26.9829 </r>
       <r>    -1.3609     9.5619    27.5437 </r>
       <r>    -1.3022     9.0875    28.0768 </r>
       <r>    -1.2436     7.1999    28.4991 </r>
       <r>    -1.1850     5.5776    28.8263 </r>
       <r>    -1.1264     5.1765    29.1300 </r>
       <r>    -1.0677     6.0240    29.4836 </r>
       <r>    -1.0091     7.2154    29.9070 </r>
       <r>    -0.9505     8.3154    30.3950 </r>
       <r>    -0.8919     8.7327    30.9072 </r>
       <r>    -0.8333     7.9564    31.3738 </r>
       <r>    -0.7746     7.1323    31.7921 </r>
       <r>    -0.7160     6.8909    32.1963 </r>
       <r>    -0.6574     6.4608    32.5754 </r>
       <r>    -0.5988     5.7485    32.9127 </r>
       <r>    -0.5401     5.6900    33.2468 </r>
       <r>    -0.4815     5.4842    33.5686 </r>
       <r>    -0.4229     4.7849    33.8493 </r>
       <r>    -0.3643     4.7689    34.1292 </r>
       <r>    -0.3056     4.5996    34.3991 </r>
       <r>    -0.2470     4.2402    34.6479 </r>
       <r>    -0.1884     4.1706    34.8927 </r>
       <r>    -0.1298     3.8789    35.1203 </r>
       <r>    -0.0711     3.5292    35.3273 </r>
       <r>    -0.0125     3.1921    35.5148 </r>
       <r>     0.0461     2.4229    35.6570 </r>
       <r>     0.1047     1.4775    35.7437 </r>
       <r>     0.1634     0.8596    35.7943 </r>
       <r>     0.2220     0.6097    35.8302 </r>
       <r>     0.2806     0.5942    35.8652 </r>
       <r>     0.3392     0.8082    35.9127 </r>
       <r>     0.3979     1.1429    35.9798 </r>
       <r>     0.4565     1.4792    36.0666 </r>
       <r>     0.5151     1.7736    36.1706 </r>
       <r>     0.5737     2.0639    36.2916 </r>
       <r>     0.6324     2.5123    36.4389 </r>
       <r>     0.6910     3.1928    36.6260 </r>
       <r>     0.7496     3.6864    36.8422 </r>
       <r>     0.8082     3.2977    37.0356 </r>
       <r>     0.8669     2.5603    37.1858 </r>
       <r>     0.9255     2.1439    37.3115 </r>
       <r>     0.9841     1.9318    37.4248 </r>
       <r>     1.0427     2.0923    37.5476 </r>
       <r>     1.1014     2.2171    37.6779 </r>
       <r>     1.1600     2.2777    37.8115 </r>
       <r>     1.2186     2.7871    37.9750 </r>
       <r>     1.2772     3.6554    38.1894 </r>
       <r>     1.3359     4.4239    38.4488 </r>
       <r>     1.3945     5.3593    38.7631 </r>
       <r>     1.4531     6.2959    39.1322 </r>
       <r>     1.5117     6.3688    39.5057 </r>
       <r>     1.5703     4.7007    39.7813 </r>
       <r>     1.6290     2.7587    39.9433 </r>
       <r>     1.6876     2.4992    40.0900 </r>
       <r>     1.7462     4.0979    40.3305 </r>
       <r>     1.8048     6.2535    40.6974 </r>
       <r>     1.8635     7.0241    41.1097 </r>
       <r>     1.9221     6.6536    41.4998 </r>
       <r>     1.9807     6.3584    41.8726 </r>
       <r>     2.0393     6.6590    42.2630 </r>
       <r>     2.0980     7.2753    42.6896 </r>
       <r>     2.1566     7.0427    43.1029 </r>
       <r>     2.2152     6.1936    43.4663 </r>
       <r>     2.2738     5.6732    43.7991 </r>
       <r>     2.3325     5.9792    44.1498 </r>
       <r>     2.3911     7.2738    44.5765 </r>
       <r>     2.4497     8.4051    45.0698 </r>
       <r>     2.5083     8.1143    45.5457 </r>
       <r>     2.5670     6.4366    45.9233 </r>
       <r>     2.6256     5.2132    46.2292 </r>
       <r>     2.6842     4.9702    46.5208 </r>
       <r>     2.7428     4.5059    46.7853 </r>
       <r>     2.8015     3.7626    47.0063 </r>
       <r>     2.8601     3.1151    47.1894 </r>
       <r>     2.9187     2.4785    47.3348 </r>
       <r>     2.9773     1.6324    47.4307 </r>
       <r>     3.0360     0.9802    47.4884 </r>
       <r>     3.0946     0.9032    47.5415 </r>
       <r>     3.1532     1.2734    47.6164 </r>
       <r>     3.2118     1.5947    47.7099 </r>
       <r>     3.2705     1.3613    47.7899 </r>
       <r>     3.3291     0.8735    47.8411 </r>
       <r>     3.3877     0.6814    47.8811 </r>
       <r>     3.4463     0.6948    47.9218 </r>
       <r>     3.5050     0.6351    47.9591 </r>
       <r>     3.5636     0.4248    47.9841 </r>
       <r>     3.6222     0.1884    47.9952 </r>
       <r>     3.6808     0.0597    47.9987 </r>
       <r>     3.7394     0.0161    47.9997 </r>
       <r>     3.7981     0.0038    47.9999 </r>
       <r>     3.8567     0.0006    48.0000 </r>
       <r>     3.9153     0.0000    48.0000 </r>
       <r>     3.9739     0.0000    48.0000 </r>
       <r>     4.0326     0.0000    48.0000 </r>
       <r>     4.0912     0.0000    48.0000 </r>
       <r>     4.1498     0.0000    48.0000 </r>
       <r>     4.2084     0.0000    48.0000 </r>
       <r>     4.2671     0.0000    48.0000 </r>
       <r>     4.3257     0.0000    48.0000 </r>
      </set>
     </set>
    </array>
   </total>
  </dos>
 </calculation>
 <structure name="finalpos" >
  <crystal>
   <varray name="basis" >
    <v>       3.45200000       0.00000000       0.00000000 </v>
    <v>       0.00000000       6.36800000       0.00000000 </v>
    <v>       0.00000000       0.00000000      16.00000000 </v>
   </varray>
   <i name="volume">    351.71737600 </i>
   <varray name="rec_basis" >
    <v>       0.28968714       0.00000000       0.00000000 </v>
    <v>       0.00000000       0.15703518       0.00000000 </v>
    <v>       0.00000000       0.00000000       0.06250000 </v>
   </varray>
  </crystal>
  <varray name="positions" >
   <v>       0.50000000       0.10159334       0.12915871 </v>
   <v>       0.50000000       0.74915219       0.90757388 </v>
   <v>       0.00000000       0.25744808       0.87084105 </v>
   <v>      -0.00000000       0.60988532       0.09242689 </v>
   <v>       0.50000000       0.36067939       0.99404787 </v>
   <v>      -0.00000000       0.99835852       0.00595160 </v>
  </varray>
 </structure>
</modeling>
