2D MoTe2 in a box                       
           1
     3.452000    0.000000    0.000000
     0.000000    6.368000    0.000000
     0.000000    0.000000   16.000000
   Te   Mo
   4   2
Direct configuration=     1
   0.50000000  0.10163317  0.12913313
   0.50000000  0.74915672  0.90758437
   0.00000000  0.25741049  0.87086563
   0.00000000  0.60988065  0.09241625
   0.50000000  0.36059673  0.99406750
   0.00000000  0.99843907  0.00593312
Direct configuration=     2
   0.50000000  0.10159272  0.12915911
   0.50000000  0.74915212  0.90757372
   0.00000000  0.25744866  0.87084067
  -0.00000000  0.60988539  0.09242706
   0.50000000  0.36068067  0.99404756
  -0.00000000  0.99835728  0.00595188
Direct configuration=     3
   0.50000000  0.10159334  0.12915871
   0.50000000  0.74915219  0.90757388
   0.00000000  0.25744808  0.87084105
  -0.00000000  0.60988532  0.09242689
   0.50000000  0.36067939  0.99404787
  -0.00000000  0.99835852  0.00595160
